                                                                                      
                                       ``:oss/                                        
                           `.+s+.     .+ys--yh+     `./ss+.                           
                          -sh//yy+`   +yy   +yy    -+h+-oyy                           
                          -yh- .oyy/.-sh.   .syo-.:sy-  /yh                           
                 `.-.`    `yh+   -oyyyo.     `/syys:    oys      `.`                  
               `/+ssys+-` `sh+      `                   oys`   .:osyo`                
               -yh- ./syyooyo`                          .sys+/oyo--yh/                
               `yy+    .-:-.                             `-/+/:`  -sh-                
                /yh.                                              oys                 
          ``..---hho---------`   .---------..`      `.-----.`    -hd+---.             
       `./osmNMMMMMMMMMMMMMMMs. +NNMMMMMMMMNNmh+.   yNMMMMMNm-  oNMMMMMNmo++:`        
       +sy--/sdMMMhyyyyyyyNMMh- .oyNMMmyyyyyhNMMm+` -yMMMdyyo:` .oyyNMMNhs+syy`       
       -yy/   /MMM+.`-+/``mMMy-   `mMMh:`````.dMMN:` `MMMy-`-dhhy```mMMy:``+hs        
        -yy+` /MMMo:-mMM+`-oo/.    mMMh:     `dMMN/`  dMMm:`dMMMMy..MMMo-.+yo`        
         .sys`/MMMMNNMMMs-         mMMmyooooymMMNo:   oMMM/sMMMMMM++MMN//oh:          
          `sh+/MMMhyyMMMs- `-`     mMMMMMMMMMNmy+-`   -MMMhMMMsmMMmdMMd/yy+           
    `-/+++oyy-/MMM+.`/hh/.`mNm:`   mMMd+/////:-.`      NMMMMMd/:NMMMMMy:/yyo/:.`      
   +os+//:-..-oMMMo:--:::-/MMMo. .-mMMd+---`           hMMMMN+. oMMMMMo. `-+osyso:`   
   syo     `mNMMMMMNNNNNNNNMMMo.oNNMMMMMNNNN:`         +MMMMs:`  dMMMN/`     ``:syo   
   /yh`     :syyyyyyyyyyyyyyyy+.`+syyyyyyyyo:`         .oyys:`   .oyys:`        +yh   
   -yh-        ````````````````    `````````              ``        ``          oys   
   -+h/------------------------::::::::://////++++++++++++++++++++++///////::::/yd:   
   shdddddddddddddddddddddddddddddhhhhhhhhyyyyyssssssssssssssssyyyyyyyhhhhhhhddddh`   
                                                                                      
  S. Ponce, E. R. Margine, C. Verdi, and F. Giustino,                                 
                                                Comput. Phys. Commun. 209, 116 (2016) 
                                                                                      

     Program EPW v.5.5 starts on 29Mar2023 at 13: 8:10 

     This program is part of the open-source Quantum ESPRESSO suite
     for quantum simulation of materials; please cite
         "P. Giannozzi et al., J. Phys.:Condens. Matter 21 395502 (2009);
         "P. Giannozzi et al., J. Phys.:Condens. Matter 29 465901 (2017);
         "P. Giannozzi et al., J. Chem. Phys. 152 154105 (2020);
          URL http://www.quantum-espresso.org", 
     in publications or presentations arising from this work. More details at
     http://www.quantum-espresso.org/quote

     Parallel version (MPI), running on    10 processors

     MPI processes distributed on     1 nodes
     K-points division:     npool     =      10
     186920 MiB available memory on the printing compute node when the environment starts
 
     Waiting for input...
     Reading input from standard input

     WARNING: The specified dis_win_min is ignored.
              You should instead use bands_skipped = 'exclude_bands = ...'
              to control the lower bound of band manifold.

     Reading supplied temperature list.

     Reading xml data from directory:

     ./pb.save/

     IMPORTANT: XC functional enforced from input :
     Exchange-correlation= PZ
                           (   1   1   0   0   0   0   0)
     Any further DFT definition will be discarded
     Please, verify this is what you really want

 
     G-vector sticks info
     --------------------
     sticks:   dense  smooth     PW     G-vecs:    dense   smooth      PW
     Sum        1045    1045    337                22419    22419    4015
 
     Using Slab Decomposition
 
     Reading collected, re-writing distributed wavefunctions

     --                                                                         

     bravais-lattice index     =            2
     lattice parameter (a_0)   =       9.2226  a.u.
     unit-cell volume          =     196.1075 (a.u.)^3
     number of atoms/cell      =            1
     number of atomic types    =            1
     kinetic-energy cut-off    =      90.0000  Ry
     charge density cut-off    =     360.0000  Ry
     Exchange-correlation= PZ
                           (   1   1   0   0   0   0   0)


     celldm(1)=    9.22256  celldm(2)=    0.00000  celldm(3)=    0.00000
     celldm(4)=    0.00000  celldm(5)=    0.00000  celldm(6)=    0.00000

     crystal axes: (cart. coord. in units of a_0)
               a(1) = ( -0.5000  0.0000  0.5000 )  
               a(2) = (  0.0000  0.5000  0.5000 )  
               a(3) = ( -0.5000  0.5000  0.0000 )  

     reciprocal axes: (cart. coord. in units 2 pi/a_0)
               b(1) = ( -1.0000 -1.0000  1.0000 )  
               b(2) = (  1.0000  1.0000  1.0000 )  
               b(3) = ( -1.0000  1.0000 -1.0000 )  


     Atoms inside the unit cell: 

   Cartesian axes

     site n.  atom      mass           positions (a_0 units)
        1        Pb 207.2000   tau( 1) = (    0.00000    0.00000    0.00000  )
 
     49 Sym.Ops. (with q -> -q+G )


     G cutoff =  775.6139  (  22419 G-vectors)     FFT grid: ( 40, 40, 40)
     number of k points= 1000  gaussian broad. (Ry)=  0.0100     ngauss =   0
                       cart. coord. in units 2pi/a_0
        k(    1) = (   0.0000000   0.0000000   0.0000000), wk =   0.0020000
        k(    2) = (  -0.1000000   0.1000000  -0.1000000), wk =   0.0020000
        k(    3) = (  -0.2000000   0.2000000  -0.2000000), wk =   0.0020000
        k(    4) = (  -0.3000000   0.3000000  -0.3000000), wk =   0.0020000
        k(    5) = (  -0.4000000   0.4000000  -0.4000000), wk =   0.0020000
        k(    6) = (  -0.5000000   0.5000000  -0.5000000), wk =   0.0020000
        k(    7) = (  -0.6000000   0.6000000  -0.6000000), wk =   0.0020000
        k(    8) = (  -0.7000000   0.7000000  -0.7000000), wk =   0.0020000
        k(    9) = (  -0.8000000   0.8000000  -0.8000000), wk =   0.0020000
        k(   10) = (  -0.9000000   0.9000000  -0.9000000), wk =   0.0020000
        k(   11) = (   0.1000000   0.1000000   0.1000000), wk =   0.0020000
        k(   12) = (   0.0000000   0.2000000   0.0000000), wk =   0.0020000
        k(   13) = (  -0.1000000   0.3000000  -0.1000000), wk =   0.0020000
        k(   14) = (  -0.2000000   0.4000000  -0.2000000), wk =   0.0020000
        k(   15) = (  -0.3000000   0.5000000  -0.3000000), wk =   0.0020000
        k(   16) = (  -0.4000000   0.6000000  -0.4000000), wk =   0.0020000
        k(   17) = (  -0.5000000   0.7000000  -0.5000000), wk =   0.0020000
        k(   18) = (  -0.6000000   0.8000000  -0.6000000), wk =   0.0020000
        k(   19) = (  -0.7000000   0.9000000  -0.7000000), wk =   0.0020000
        k(   20) = (  -0.8000000   1.0000000  -0.8000000), wk =   0.0020000
        k(   21) = (   0.2000000   0.2000000   0.2000000), wk =   0.0020000
        k(   22) = (   0.1000000   0.3000000   0.1000000), wk =   0.0020000
        k(   23) = (   0.0000000   0.4000000   0.0000000), wk =   0.0020000
        k(   24) = (  -0.1000000   0.5000000  -0.1000000), wk =   0.0020000
        k(   25) = (  -0.2000000   0.6000000  -0.2000000), wk =   0.0020000
        k(   26) = (  -0.3000000   0.7000000  -0.3000000), wk =   0.0020000
        k(   27) = (  -0.4000000   0.8000000  -0.4000000), wk =   0.0020000
        k(   28) = (  -0.5000000   0.9000000  -0.5000000), wk =   0.0020000
        k(   29) = (  -0.6000000   1.0000000  -0.6000000), wk =   0.0020000
        k(   30) = (  -0.7000000   1.1000000  -0.7000000), wk =   0.0020000
        k(   31) = (   0.3000000   0.3000000   0.3000000), wk =   0.0020000
        k(   32) = (   0.2000000   0.4000000   0.2000000), wk =   0.0020000
        k(   33) = (   0.1000000   0.5000000   0.1000000), wk =   0.0020000
        k(   34) = (   0.0000000   0.6000000   0.0000000), wk =   0.0020000
        k(   35) = (  -0.1000000   0.7000000  -0.1000000), wk =   0.0020000
        k(   36) = (  -0.2000000   0.8000000  -0.2000000), wk =   0.0020000
        k(   37) = (  -0.3000000   0.9000000  -0.3000000), wk =   0.0020000
        k(   38) = (  -0.4000000   1.0000000  -0.4000000), wk =   0.0020000
        k(   39) = (  -0.5000000   1.1000000  -0.5000000), wk =   0.0020000
        k(   40) = (  -0.6000000   1.2000000  -0.6000000), wk =   0.0020000
        k(   41) = (   0.4000000   0.4000000   0.4000000), wk =   0.0020000
        k(   42) = (   0.3000000   0.5000000   0.3000000), wk =   0.0020000
        k(   43) = (   0.2000000   0.6000000   0.2000000), wk =   0.0020000
        k(   44) = (   0.1000000   0.7000000   0.1000000), wk =   0.0020000
        k(   45) = (   0.0000000   0.8000000   0.0000000), wk =   0.0020000
        k(   46) = (  -0.1000000   0.9000000  -0.1000000), wk =   0.0020000
        k(   47) = (  -0.2000000   1.0000000  -0.2000000), wk =   0.0020000
        k(   48) = (  -0.3000000   1.1000000  -0.3000000), wk =   0.0020000
        k(   49) = (  -0.4000000   1.2000000  -0.4000000), wk =   0.0020000
        k(   50) = (  -0.5000000   1.3000000  -0.5000000), wk =   0.0020000
        k(   51) = (   0.5000000   0.5000000   0.5000000), wk =   0.0020000
        k(   52) = (   0.4000000   0.6000000   0.4000000), wk =   0.0020000
        k(   53) = (   0.3000000   0.7000000   0.3000000), wk =   0.0020000
        k(   54) = (   0.2000000   0.8000000   0.2000000), wk =   0.0020000
        k(   55) = (   0.1000000   0.9000000   0.1000000), wk =   0.0020000
        k(   56) = (   0.0000000   1.0000000   0.0000000), wk =   0.0020000
        k(   57) = (  -0.1000000   1.1000000  -0.1000000), wk =   0.0020000
        k(   58) = (  -0.2000000   1.2000000  -0.2000000), wk =   0.0020000
        k(   59) = (  -0.3000000   1.3000000  -0.3000000), wk =   0.0020000
        k(   60) = (  -0.4000000   1.4000000  -0.4000000), wk =   0.0020000
        k(   61) = (   0.6000000   0.6000000   0.6000000), wk =   0.0020000
        k(   62) = (   0.5000000   0.7000000   0.5000000), wk =   0.0020000
        k(   63) = (   0.4000000   0.8000000   0.4000000), wk =   0.0020000
        k(   64) = (   0.3000000   0.9000000   0.3000000), wk =   0.0020000
        k(   65) = (   0.2000000   1.0000000   0.2000000), wk =   0.0020000
        k(   66) = (   0.1000000   1.1000000   0.1000000), wk =   0.0020000
        k(   67) = (   0.0000000   1.2000000   0.0000000), wk =   0.0020000
        k(   68) = (  -0.1000000   1.3000000  -0.1000000), wk =   0.0020000
        k(   69) = (  -0.2000000   1.4000000  -0.2000000), wk =   0.0020000
        k(   70) = (  -0.3000000   1.5000000  -0.3000000), wk =   0.0020000
        k(   71) = (   0.7000000   0.7000000   0.7000000), wk =   0.0020000
        k(   72) = (   0.6000000   0.8000000   0.6000000), wk =   0.0020000
        k(   73) = (   0.5000000   0.9000000   0.5000000), wk =   0.0020000
        k(   74) = (   0.4000000   1.0000000   0.4000000), wk =   0.0020000
        k(   75) = (   0.3000000   1.1000000   0.3000000), wk =   0.0020000
        k(   76) = (   0.2000000   1.2000000   0.2000000), wk =   0.0020000
        k(   77) = (   0.1000000   1.3000000   0.1000000), wk =   0.0020000
        k(   78) = (   0.0000000   1.4000000   0.0000000), wk =   0.0020000
        k(   79) = (  -0.1000000   1.5000000  -0.1000000), wk =   0.0020000
        k(   80) = (  -0.2000000   1.6000000  -0.2000000), wk =   0.0020000
        k(   81) = (   0.8000000   0.8000000   0.8000000), wk =   0.0020000
        k(   82) = (   0.7000000   0.9000000   0.7000000), wk =   0.0020000
        k(   83) = (   0.6000000   1.0000000   0.6000000), wk =   0.0020000
        k(   84) = (   0.5000000   1.1000000   0.5000000), wk =   0.0020000
        k(   85) = (   0.4000000   1.2000000   0.4000000), wk =   0.0020000
        k(   86) = (   0.3000000   1.3000000   0.3000000), wk =   0.0020000
        k(   87) = (   0.2000000   1.4000000   0.2000000), wk =   0.0020000
        k(   88) = (   0.1000000   1.5000000   0.1000000), wk =   0.0020000
        k(   89) = (   0.0000000   1.6000000   0.0000000), wk =   0.0020000
        k(   90) = (  -0.1000000   1.7000000  -0.1000000), wk =   0.0020000
        k(   91) = (   0.9000000   0.9000000   0.9000000), wk =   0.0020000
        k(   92) = (   0.8000000   1.0000000   0.8000000), wk =   0.0020000
        k(   93) = (   0.7000000   1.1000000   0.7000000), wk =   0.0020000
        k(   94) = (   0.6000000   1.2000000   0.6000000), wk =   0.0020000
        k(   95) = (   0.5000000   1.3000000   0.5000000), wk =   0.0020000
        k(   96) = (   0.4000000   1.4000000   0.4000000), wk =   0.0020000
        k(   97) = (   0.3000000   1.5000000   0.3000000), wk =   0.0020000
        k(   98) = (   0.2000000   1.6000000   0.2000000), wk =   0.0020000
        k(   99) = (   0.1000000   1.7000000   0.1000000), wk =   0.0020000
        k(  100) = (   0.0000000   1.8000000   0.0000000), wk =   0.0020000
        k(  101) = (  -0.1000000  -0.1000000   0.1000000), wk =   0.0020000
        k(  102) = (  -0.2000000   0.0000000   0.0000000), wk =   0.0020000
        k(  103) = (  -0.3000000   0.1000000  -0.1000000), wk =   0.0020000
        k(  104) = (  -0.4000000   0.2000000  -0.2000000), wk =   0.0020000
        k(  105) = (  -0.5000000   0.3000000  -0.3000000), wk =   0.0020000
        k(  106) = (  -0.6000000   0.4000000  -0.4000000), wk =   0.0020000
        k(  107) = (  -0.7000000   0.5000000  -0.5000000), wk =   0.0020000
        k(  108) = (  -0.8000000   0.6000000  -0.6000000), wk =   0.0020000
        k(  109) = (  -0.9000000   0.7000000  -0.7000000), wk =   0.0020000
        k(  110) = (  -1.0000000   0.8000000  -0.8000000), wk =   0.0020000
        k(  111) = (   0.0000000   0.0000000   0.2000000), wk =   0.0020000
        k(  112) = (  -0.1000000   0.1000000   0.1000000), wk =   0.0020000
        k(  113) = (  -0.2000000   0.2000000   0.0000000), wk =   0.0020000
        k(  114) = (  -0.3000000   0.3000000  -0.1000000), wk =   0.0020000
        k(  115) = (  -0.4000000   0.4000000  -0.2000000), wk =   0.0020000
        k(  116) = (  -0.5000000   0.5000000  -0.3000000), wk =   0.0020000
        k(  117) = (  -0.6000000   0.6000000  -0.4000000), wk =   0.0020000
        k(  118) = (  -0.7000000   0.7000000  -0.5000000), wk =   0.0020000
        k(  119) = (  -0.8000000   0.8000000  -0.6000000), wk =   0.0020000
        k(  120) = (  -0.9000000   0.9000000  -0.7000000), wk =   0.0020000
        k(  121) = (   0.1000000   0.1000000   0.3000000), wk =   0.0020000
        k(  122) = (   0.0000000   0.2000000   0.2000000), wk =   0.0020000
        k(  123) = (  -0.1000000   0.3000000   0.1000000), wk =   0.0020000
        k(  124) = (  -0.2000000   0.4000000   0.0000000), wk =   0.0020000
        k(  125) = (  -0.3000000   0.5000000  -0.1000000), wk =   0.0020000
        k(  126) = (  -0.4000000   0.6000000  -0.2000000), wk =   0.0020000
        k(  127) = (  -0.5000000   0.7000000  -0.3000000), wk =   0.0020000
        k(  128) = (  -0.6000000   0.8000000  -0.4000000), wk =   0.0020000
        k(  129) = (  -0.7000000   0.9000000  -0.5000000), wk =   0.0020000
        k(  130) = (  -0.8000000   1.0000000  -0.6000000), wk =   0.0020000
        k(  131) = (   0.2000000   0.2000000   0.4000000), wk =   0.0020000
        k(  132) = (   0.1000000   0.3000000   0.3000000), wk =   0.0020000
        k(  133) = (  -0.0000000   0.4000000   0.2000000), wk =   0.0020000
        k(  134) = (  -0.1000000   0.5000000   0.1000000), wk =   0.0020000
        k(  135) = (  -0.2000000   0.6000000   0.0000000), wk =   0.0020000
        k(  136) = (  -0.3000000   0.7000000  -0.1000000), wk =   0.0020000
        k(  137) = (  -0.4000000   0.8000000  -0.2000000), wk =   0.0020000
        k(  138) = (  -0.5000000   0.9000000  -0.3000000), wk =   0.0020000
        k(  139) = (  -0.6000000   1.0000000  -0.4000000), wk =   0.0020000
        k(  140) = (  -0.7000000   1.1000000  -0.5000000), wk =   0.0020000
        k(  141) = (   0.3000000   0.3000000   0.5000000), wk =   0.0020000
        k(  142) = (   0.2000000   0.4000000   0.4000000), wk =   0.0020000
        k(  143) = (   0.1000000   0.5000000   0.3000000), wk =   0.0020000
        k(  144) = (   0.0000000   0.6000000   0.2000000), wk =   0.0020000
        k(  145) = (  -0.1000000   0.7000000   0.1000000), wk =   0.0020000
        k(  146) = (  -0.2000000   0.8000000   0.0000000), wk =   0.0020000
        k(  147) = (  -0.3000000   0.9000000  -0.1000000), wk =   0.0020000
        k(  148) = (  -0.4000000   1.0000000  -0.2000000), wk =   0.0020000
        k(  149) = (  -0.5000000   1.1000000  -0.3000000), wk =   0.0020000
        k(  150) = (  -0.6000000   1.2000000  -0.4000000), wk =   0.0020000
        k(  151) = (   0.4000000   0.4000000   0.6000000), wk =   0.0020000
        k(  152) = (   0.3000000   0.5000000   0.5000000), wk =   0.0020000
        k(  153) = (   0.2000000   0.6000000   0.4000000), wk =   0.0020000
        k(  154) = (   0.1000000   0.7000000   0.3000000), wk =   0.0020000
        k(  155) = (   0.0000000   0.8000000   0.2000000), wk =   0.0020000
        k(  156) = (  -0.1000000   0.9000000   0.1000000), wk =   0.0020000
        k(  157) = (  -0.2000000   1.0000000   0.0000000), wk =   0.0020000
        k(  158) = (  -0.3000000   1.1000000  -0.1000000), wk =   0.0020000
        k(  159) = (  -0.4000000   1.2000000  -0.2000000), wk =   0.0020000
        k(  160) = (  -0.5000000   1.3000000  -0.3000000), wk =   0.0020000
        k(  161) = (   0.5000000   0.5000000   0.7000000), wk =   0.0020000
        k(  162) = (   0.4000000   0.6000000   0.6000000), wk =   0.0020000
        k(  163) = (   0.3000000   0.7000000   0.5000000), wk =   0.0020000
        k(  164) = (   0.2000000   0.8000000   0.4000000), wk =   0.0020000
        k(  165) = (   0.1000000   0.9000000   0.3000000), wk =   0.0020000
        k(  166) = (   0.0000000   1.0000000   0.2000000), wk =   0.0020000
        k(  167) = (  -0.1000000   1.1000000   0.1000000), wk =   0.0020000
        k(  168) = (  -0.2000000   1.2000000   0.0000000), wk =   0.0020000
        k(  169) = (  -0.3000000   1.3000000  -0.1000000), wk =   0.0020000
        k(  170) = (  -0.4000000   1.4000000  -0.2000000), wk =   0.0020000
        k(  171) = (   0.6000000   0.6000000   0.8000000), wk =   0.0020000
        k(  172) = (   0.5000000   0.7000000   0.7000000), wk =   0.0020000
        k(  173) = (   0.4000000   0.8000000   0.6000000), wk =   0.0020000
        k(  174) = (   0.3000000   0.9000000   0.5000000), wk =   0.0020000
        k(  175) = (   0.2000000   1.0000000   0.4000000), wk =   0.0020000
        k(  176) = (   0.1000000   1.1000000   0.3000000), wk =   0.0020000
        k(  177) = (   0.0000000   1.2000000   0.2000000), wk =   0.0020000
        k(  178) = (  -0.1000000   1.3000000   0.1000000), wk =   0.0020000
        k(  179) = (  -0.2000000   1.4000000  -0.0000000), wk =   0.0020000
        k(  180) = (  -0.3000000   1.5000000  -0.1000000), wk =   0.0020000
        k(  181) = (   0.7000000   0.7000000   0.9000000), wk =   0.0020000
        k(  182) = (   0.6000000   0.8000000   0.8000000), wk =   0.0020000
        k(  183) = (   0.5000000   0.9000000   0.7000000), wk =   0.0020000
        k(  184) = (   0.4000000   1.0000000   0.6000000), wk =   0.0020000
        k(  185) = (   0.3000000   1.1000000   0.5000000), wk =   0.0020000
        k(  186) = (   0.2000000   1.2000000   0.4000000), wk =   0.0020000
        k(  187) = (   0.1000000   1.3000000   0.3000000), wk =   0.0020000
        k(  188) = (   0.0000000   1.4000000   0.2000000), wk =   0.0020000
        k(  189) = (  -0.1000000   1.5000000   0.1000000), wk =   0.0020000
        k(  190) = (  -0.2000000   1.6000000   0.0000000), wk =   0.0020000
        k(  191) = (   0.8000000   0.8000000   1.0000000), wk =   0.0020000
        k(  192) = (   0.7000000   0.9000000   0.9000000), wk =   0.0020000
        k(  193) = (   0.6000000   1.0000000   0.8000000), wk =   0.0020000
        k(  194) = (   0.5000000   1.1000000   0.7000000), wk =   0.0020000
        k(  195) = (   0.4000000   1.2000000   0.6000000), wk =   0.0020000
        k(  196) = (   0.3000000   1.3000000   0.5000000), wk =   0.0020000
        k(  197) = (   0.2000000   1.4000000   0.4000000), wk =   0.0020000
        k(  198) = (   0.1000000   1.5000000   0.3000000), wk =   0.0020000
        k(  199) = (   0.0000000   1.6000000   0.2000000), wk =   0.0020000
        k(  200) = (  -0.1000000   1.7000000   0.1000000), wk =   0.0020000
        k(  201) = (  -0.2000000  -0.2000000   0.2000000), wk =   0.0020000
        k(  202) = (  -0.3000000  -0.1000000   0.1000000), wk =   0.0020000
        k(  203) = (  -0.4000000   0.0000000   0.0000000), wk =   0.0020000
        k(  204) = (  -0.5000000   0.1000000  -0.1000000), wk =   0.0020000
        k(  205) = (  -0.6000000   0.2000000  -0.2000000), wk =   0.0020000
        k(  206) = (  -0.7000000   0.3000000  -0.3000000), wk =   0.0020000
        k(  207) = (  -0.8000000   0.4000000  -0.4000000), wk =   0.0020000
        k(  208) = (  -0.9000000   0.5000000  -0.5000000), wk =   0.0020000
        k(  209) = (  -1.0000000   0.6000000  -0.6000000), wk =   0.0020000
        k(  210) = (  -1.1000000   0.7000000  -0.7000000), wk =   0.0020000
        k(  211) = (  -0.1000000  -0.1000000   0.3000000), wk =   0.0020000
        k(  212) = (  -0.2000000   0.0000000   0.2000000), wk =   0.0020000
        k(  213) = (  -0.3000000   0.1000000   0.1000000), wk =   0.0020000
        k(  214) = (  -0.4000000   0.2000000   0.0000000), wk =   0.0020000
        k(  215) = (  -0.5000000   0.3000000  -0.1000000), wk =   0.0020000
        k(  216) = (  -0.6000000   0.4000000  -0.2000000), wk =   0.0020000
        k(  217) = (  -0.7000000   0.5000000  -0.3000000), wk =   0.0020000
        k(  218) = (  -0.8000000   0.6000000  -0.4000000), wk =   0.0020000
        k(  219) = (  -0.9000000   0.7000000  -0.5000000), wk =   0.0020000
        k(  220) = (  -1.0000000   0.8000000  -0.6000000), wk =   0.0020000
        k(  221) = (   0.0000000   0.0000000   0.4000000), wk =   0.0020000
        k(  222) = (  -0.1000000   0.1000000   0.3000000), wk =   0.0020000
        k(  223) = (  -0.2000000   0.2000000   0.2000000), wk =   0.0020000
        k(  224) = (  -0.3000000   0.3000000   0.1000000), wk =   0.0020000
        k(  225) = (  -0.4000000   0.4000000   0.0000000), wk =   0.0020000
        k(  226) = (  -0.5000000   0.5000000  -0.1000000), wk =   0.0020000
        k(  227) = (  -0.6000000   0.6000000  -0.2000000), wk =   0.0020000
        k(  228) = (  -0.7000000   0.7000000  -0.3000000), wk =   0.0020000
        k(  229) = (  -0.8000000   0.8000000  -0.4000000), wk =   0.0020000
        k(  230) = (  -0.9000000   0.9000000  -0.5000000), wk =   0.0020000
        k(  231) = (   0.1000000   0.1000000   0.5000000), wk =   0.0020000
        k(  232) = (  -0.0000000   0.2000000   0.4000000), wk =   0.0020000
        k(  233) = (  -0.1000000   0.3000000   0.3000000), wk =   0.0020000
        k(  234) = (  -0.2000000   0.4000000   0.2000000), wk =   0.0020000
        k(  235) = (  -0.3000000   0.5000000   0.1000000), wk =   0.0020000
        k(  236) = (  -0.4000000   0.6000000   0.0000000), wk =   0.0020000
        k(  237) = (  -0.5000000   0.7000000  -0.1000000), wk =   0.0020000
        k(  238) = (  -0.6000000   0.8000000  -0.2000000), wk =   0.0020000
        k(  239) = (  -0.7000000   0.9000000  -0.3000000), wk =   0.0020000
        k(  240) = (  -0.8000000   1.0000000  -0.4000000), wk =   0.0020000
        k(  241) = (   0.2000000   0.2000000   0.6000000), wk =   0.0020000
        k(  242) = (   0.1000000   0.3000000   0.5000000), wk =   0.0020000
        k(  243) = (   0.0000000   0.4000000   0.4000000), wk =   0.0020000
        k(  244) = (  -0.1000000   0.5000000   0.3000000), wk =   0.0020000
        k(  245) = (  -0.2000000   0.6000000   0.2000000), wk =   0.0020000
        k(  246) = (  -0.3000000   0.7000000   0.1000000), wk =   0.0020000
        k(  247) = (  -0.4000000   0.8000000   0.0000000), wk =   0.0020000
        k(  248) = (  -0.5000000   0.9000000  -0.1000000), wk =   0.0020000
        k(  249) = (  -0.6000000   1.0000000  -0.2000000), wk =   0.0020000
        k(  250) = (  -0.7000000   1.1000000  -0.3000000), wk =   0.0020000
        k(  251) = (   0.3000000   0.3000000   0.7000000), wk =   0.0020000
        k(  252) = (   0.2000000   0.4000000   0.6000000), wk =   0.0020000
        k(  253) = (   0.1000000   0.5000000   0.5000000), wk =   0.0020000
        k(  254) = (   0.0000000   0.6000000   0.4000000), wk =   0.0020000
        k(  255) = (  -0.1000000   0.7000000   0.3000000), wk =   0.0020000
        k(  256) = (  -0.2000000   0.8000000   0.2000000), wk =   0.0020000
        k(  257) = (  -0.3000000   0.9000000   0.1000000), wk =   0.0020000
        k(  258) = (  -0.4000000   1.0000000   0.0000000), wk =   0.0020000
        k(  259) = (  -0.5000000   1.1000000  -0.1000000), wk =   0.0020000
        k(  260) = (  -0.6000000   1.2000000  -0.2000000), wk =   0.0020000
        k(  261) = (   0.4000000   0.4000000   0.8000000), wk =   0.0020000
        k(  262) = (   0.3000000   0.5000000   0.7000000), wk =   0.0020000
        k(  263) = (   0.2000000   0.6000000   0.6000000), wk =   0.0020000
        k(  264) = (   0.1000000   0.7000000   0.5000000), wk =   0.0020000
        k(  265) = (  -0.0000000   0.8000000   0.4000000), wk =   0.0020000
        k(  266) = (  -0.1000000   0.9000000   0.3000000), wk =   0.0020000
        k(  267) = (  -0.2000000   1.0000000   0.2000000), wk =   0.0020000
        k(  268) = (  -0.3000000   1.1000000   0.1000000), wk =   0.0020000
        k(  269) = (  -0.4000000   1.2000000   0.0000000), wk =   0.0020000
        k(  270) = (  -0.5000000   1.3000000  -0.1000000), wk =   0.0020000
        k(  271) = (   0.5000000   0.5000000   0.9000000), wk =   0.0020000
        k(  272) = (   0.4000000   0.6000000   0.8000000), wk =   0.0020000
        k(  273) = (   0.3000000   0.7000000   0.7000000), wk =   0.0020000
        k(  274) = (   0.2000000   0.8000000   0.6000000), wk =   0.0020000
        k(  275) = (   0.1000000   0.9000000   0.5000000), wk =   0.0020000
        k(  276) = (  -0.0000000   1.0000000   0.4000000), wk =   0.0020000
        k(  277) = (  -0.1000000   1.1000000   0.3000000), wk =   0.0020000
        k(  278) = (  -0.2000000   1.2000000   0.2000000), wk =   0.0020000
        k(  279) = (  -0.3000000   1.3000000   0.1000000), wk =   0.0020000
        k(  280) = (  -0.4000000   1.4000000  -0.0000000), wk =   0.0020000
        k(  281) = (   0.6000000   0.6000000   1.0000000), wk =   0.0020000
        k(  282) = (   0.5000000   0.7000000   0.9000000), wk =   0.0020000
        k(  283) = (   0.4000000   0.8000000   0.8000000), wk =   0.0020000
        k(  284) = (   0.3000000   0.9000000   0.7000000), wk =   0.0020000
        k(  285) = (   0.2000000   1.0000000   0.6000000), wk =   0.0020000
        k(  286) = (   0.1000000   1.1000000   0.5000000), wk =   0.0020000
        k(  287) = (   0.0000000   1.2000000   0.4000000), wk =   0.0020000
        k(  288) = (  -0.1000000   1.3000000   0.3000000), wk =   0.0020000
        k(  289) = (  -0.2000000   1.4000000   0.2000000), wk =   0.0020000
        k(  290) = (  -0.3000000   1.5000000   0.1000000), wk =   0.0020000
        k(  291) = (   0.7000000   0.7000000   1.1000000), wk =   0.0020000
        k(  292) = (   0.6000000   0.8000000   1.0000000), wk =   0.0020000
        k(  293) = (   0.5000000   0.9000000   0.9000000), wk =   0.0020000
        k(  294) = (   0.4000000   1.0000000   0.8000000), wk =   0.0020000
        k(  295) = (   0.3000000   1.1000000   0.7000000), wk =   0.0020000
        k(  296) = (   0.2000000   1.2000000   0.6000000), wk =   0.0020000
        k(  297) = (   0.1000000   1.3000000   0.5000000), wk =   0.0020000
        k(  298) = (   0.0000000   1.4000000   0.4000000), wk =   0.0020000
        k(  299) = (  -0.1000000   1.5000000   0.3000000), wk =   0.0020000
        k(  300) = (  -0.2000000   1.6000000   0.2000000), wk =   0.0020000
        k(  301) = (  -0.3000000  -0.3000000   0.3000000), wk =   0.0020000
        k(  302) = (  -0.4000000  -0.2000000   0.2000000), wk =   0.0020000
        k(  303) = (  -0.5000000  -0.1000000   0.1000000), wk =   0.0020000
        k(  304) = (  -0.6000000   0.0000000   0.0000000), wk =   0.0020000
        k(  305) = (  -0.7000000   0.1000000  -0.1000000), wk =   0.0020000
        k(  306) = (  -0.8000000   0.2000000  -0.2000000), wk =   0.0020000
        k(  307) = (  -0.9000000   0.3000000  -0.3000000), wk =   0.0020000
        k(  308) = (  -1.0000000   0.4000000  -0.4000000), wk =   0.0020000
        k(  309) = (  -1.1000000   0.5000000  -0.5000000), wk =   0.0020000
        k(  310) = (  -1.2000000   0.6000000  -0.6000000), wk =   0.0020000
        k(  311) = (  -0.2000000  -0.2000000   0.4000000), wk =   0.0020000
        k(  312) = (  -0.3000000  -0.1000000   0.3000000), wk =   0.0020000
        k(  313) = (  -0.4000000   0.0000000   0.2000000), wk =   0.0020000
        k(  314) = (  -0.5000000   0.1000000   0.1000000), wk =   0.0020000
        k(  315) = (  -0.6000000   0.2000000   0.0000000), wk =   0.0020000
        k(  316) = (  -0.7000000   0.3000000  -0.1000000), wk =   0.0020000
        k(  317) = (  -0.8000000   0.4000000  -0.2000000), wk =   0.0020000
        k(  318) = (  -0.9000000   0.5000000  -0.3000000), wk =   0.0020000
        k(  319) = (  -1.0000000   0.6000000  -0.4000000), wk =   0.0020000
        k(  320) = (  -1.1000000   0.7000000  -0.5000000), wk =   0.0020000
        k(  321) = (  -0.1000000  -0.1000000   0.5000000), wk =   0.0020000
        k(  322) = (  -0.2000000   0.0000000   0.4000000), wk =   0.0020000
        k(  323) = (  -0.3000000   0.1000000   0.3000000), wk =   0.0020000
        k(  324) = (  -0.4000000   0.2000000   0.2000000), wk =   0.0020000
        k(  325) = (  -0.5000000   0.3000000   0.1000000), wk =   0.0020000
        k(  326) = (  -0.6000000   0.4000000   0.0000000), wk =   0.0020000
        k(  327) = (  -0.7000000   0.5000000  -0.1000000), wk =   0.0020000
        k(  328) = (  -0.8000000   0.6000000  -0.2000000), wk =   0.0020000
        k(  329) = (  -0.9000000   0.7000000  -0.3000000), wk =   0.0020000
        k(  330) = (  -1.0000000   0.8000000  -0.4000000), wk =   0.0020000
        k(  331) = (   0.0000000   0.0000000   0.6000000), wk =   0.0020000
        k(  332) = (  -0.1000000   0.1000000   0.5000000), wk =   0.0020000
        k(  333) = (  -0.2000000   0.2000000   0.4000000), wk =   0.0020000
        k(  334) = (  -0.3000000   0.3000000   0.3000000), wk =   0.0020000
        k(  335) = (  -0.4000000   0.4000000   0.2000000), wk =   0.0020000
        k(  336) = (  -0.5000000   0.5000000   0.1000000), wk =   0.0020000
        k(  337) = (  -0.6000000   0.6000000   0.0000000), wk =   0.0020000
        k(  338) = (  -0.7000000   0.7000000  -0.1000000), wk =   0.0020000
        k(  339) = (  -0.8000000   0.8000000  -0.2000000), wk =   0.0020000
        k(  340) = (  -0.9000000   0.9000000  -0.3000000), wk =   0.0020000
        k(  341) = (   0.1000000   0.1000000   0.7000000), wk =   0.0020000
        k(  342) = (   0.0000000   0.2000000   0.6000000), wk =   0.0020000
        k(  343) = (  -0.1000000   0.3000000   0.5000000), wk =   0.0020000
        k(  344) = (  -0.2000000   0.4000000   0.4000000), wk =   0.0020000
        k(  345) = (  -0.3000000   0.5000000   0.3000000), wk =   0.0020000
        k(  346) = (  -0.4000000   0.6000000   0.2000000), wk =   0.0020000
        k(  347) = (  -0.5000000   0.7000000   0.1000000), wk =   0.0020000
        k(  348) = (  -0.6000000   0.8000000   0.0000000), wk =   0.0020000
        k(  349) = (  -0.7000000   0.9000000  -0.1000000), wk =   0.0020000
        k(  350) = (  -0.8000000   1.0000000  -0.2000000), wk =   0.0020000
        k(  351) = (   0.2000000   0.2000000   0.8000000), wk =   0.0020000
        k(  352) = (   0.1000000   0.3000000   0.7000000), wk =   0.0020000
        k(  353) = (   0.0000000   0.4000000   0.6000000), wk =   0.0020000
        k(  354) = (  -0.1000000   0.5000000   0.5000000), wk =   0.0020000
        k(  355) = (  -0.2000000   0.6000000   0.4000000), wk =   0.0020000
        k(  356) = (  -0.3000000   0.7000000   0.3000000), wk =   0.0020000
        k(  357) = (  -0.4000000   0.8000000   0.2000000), wk =   0.0020000
        k(  358) = (  -0.5000000   0.9000000   0.1000000), wk =   0.0020000
        k(  359) = (  -0.6000000   1.0000000   0.0000000), wk =   0.0020000
        k(  360) = (  -0.7000000   1.1000000  -0.1000000), wk =   0.0020000
        k(  361) = (   0.3000000   0.3000000   0.9000000), wk =   0.0020000
        k(  362) = (   0.2000000   0.4000000   0.8000000), wk =   0.0020000
        k(  363) = (   0.1000000   0.5000000   0.7000000), wk =   0.0020000
        k(  364) = (   0.0000000   0.6000000   0.6000000), wk =   0.0020000
        k(  365) = (  -0.1000000   0.7000000   0.5000000), wk =   0.0020000
        k(  366) = (  -0.2000000   0.8000000   0.4000000), wk =   0.0020000
        k(  367) = (  -0.3000000   0.9000000   0.3000000), wk =   0.0020000
        k(  368) = (  -0.4000000   1.0000000   0.2000000), wk =   0.0020000
        k(  369) = (  -0.5000000   1.1000000   0.1000000), wk =   0.0020000
        k(  370) = (  -0.6000000   1.2000000  -0.0000000), wk =   0.0020000
        k(  371) = (   0.4000000   0.4000000   1.0000000), wk =   0.0020000
        k(  372) = (   0.3000000   0.5000000   0.9000000), wk =   0.0020000
        k(  373) = (   0.2000000   0.6000000   0.8000000), wk =   0.0020000
        k(  374) = (   0.1000000   0.7000000   0.7000000), wk =   0.0020000
        k(  375) = (  -0.0000000   0.8000000   0.6000000), wk =   0.0020000
        k(  376) = (  -0.1000000   0.9000000   0.5000000), wk =   0.0020000
        k(  377) = (  -0.2000000   1.0000000   0.4000000), wk =   0.0020000
        k(  378) = (  -0.3000000   1.1000000   0.3000000), wk =   0.0020000
        k(  379) = (  -0.4000000   1.2000000   0.2000000), wk =   0.0020000
        k(  380) = (  -0.5000000   1.3000000   0.1000000), wk =   0.0020000
        k(  381) = (   0.5000000   0.5000000   1.1000000), wk =   0.0020000
        k(  382) = (   0.4000000   0.6000000   1.0000000), wk =   0.0020000
        k(  383) = (   0.3000000   0.7000000   0.9000000), wk =   0.0020000
        k(  384) = (   0.2000000   0.8000000   0.8000000), wk =   0.0020000
        k(  385) = (   0.1000000   0.9000000   0.7000000), wk =   0.0020000
        k(  386) = (   0.0000000   1.0000000   0.6000000), wk =   0.0020000
        k(  387) = (  -0.1000000   1.1000000   0.5000000), wk =   0.0020000
        k(  388) = (  -0.2000000   1.2000000   0.4000000), wk =   0.0020000
        k(  389) = (  -0.3000000   1.3000000   0.3000000), wk =   0.0020000
        k(  390) = (  -0.4000000   1.4000000   0.2000000), wk =   0.0020000
        k(  391) = (   0.6000000   0.6000000   1.2000000), wk =   0.0020000
        k(  392) = (   0.5000000   0.7000000   1.1000000), wk =   0.0020000
        k(  393) = (   0.4000000   0.8000000   1.0000000), wk =   0.0020000
        k(  394) = (   0.3000000   0.9000000   0.9000000), wk =   0.0020000
        k(  395) = (   0.2000000   1.0000000   0.8000000), wk =   0.0020000
        k(  396) = (   0.1000000   1.1000000   0.7000000), wk =   0.0020000
        k(  397) = (   0.0000000   1.2000000   0.6000000), wk =   0.0020000
        k(  398) = (  -0.1000000   1.3000000   0.5000000), wk =   0.0020000
        k(  399) = (  -0.2000000   1.4000000   0.4000000), wk =   0.0020000
        k(  400) = (  -0.3000000   1.5000000   0.3000000), wk =   0.0020000
        k(  401) = (  -0.4000000  -0.4000000   0.4000000), wk =   0.0020000
        k(  402) = (  -0.5000000  -0.3000000   0.3000000), wk =   0.0020000
        k(  403) = (  -0.6000000  -0.2000000   0.2000000), wk =   0.0020000
        k(  404) = (  -0.7000000  -0.1000000   0.1000000), wk =   0.0020000
        k(  405) = (  -0.8000000   0.0000000   0.0000000), wk =   0.0020000
        k(  406) = (  -0.9000000   0.1000000  -0.1000000), wk =   0.0020000
        k(  407) = (  -1.0000000   0.2000000  -0.2000000), wk =   0.0020000
        k(  408) = (  -1.1000000   0.3000000  -0.3000000), wk =   0.0020000
        k(  409) = (  -1.2000000   0.4000000  -0.4000000), wk =   0.0020000
        k(  410) = (  -1.3000000   0.5000000  -0.5000000), wk =   0.0020000
        k(  411) = (  -0.3000000  -0.3000000   0.5000000), wk =   0.0020000
        k(  412) = (  -0.4000000  -0.2000000   0.4000000), wk =   0.0020000
        k(  413) = (  -0.5000000  -0.1000000   0.3000000), wk =   0.0020000
        k(  414) = (  -0.6000000  -0.0000000   0.2000000), wk =   0.0020000
        k(  415) = (  -0.7000000   0.1000000   0.1000000), wk =   0.0020000
        k(  416) = (  -0.8000000   0.2000000   0.0000000), wk =   0.0020000
        k(  417) = (  -0.9000000   0.3000000  -0.1000000), wk =   0.0020000
        k(  418) = (  -1.0000000   0.4000000  -0.2000000), wk =   0.0020000
        k(  419) = (  -1.1000000   0.5000000  -0.3000000), wk =   0.0020000
        k(  420) = (  -1.2000000   0.6000000  -0.4000000), wk =   0.0020000
        k(  421) = (  -0.2000000  -0.2000000   0.6000000), wk =   0.0020000
        k(  422) = (  -0.3000000  -0.1000000   0.5000000), wk =   0.0020000
        k(  423) = (  -0.4000000   0.0000000   0.4000000), wk =   0.0020000
        k(  424) = (  -0.5000000   0.1000000   0.3000000), wk =   0.0020000
        k(  425) = (  -0.6000000   0.2000000   0.2000000), wk =   0.0020000
        k(  426) = (  -0.7000000   0.3000000   0.1000000), wk =   0.0020000
        k(  427) = (  -0.8000000   0.4000000   0.0000000), wk =   0.0020000
        k(  428) = (  -0.9000000   0.5000000  -0.1000000), wk =   0.0020000
        k(  429) = (  -1.0000000   0.6000000  -0.2000000), wk =   0.0020000
        k(  430) = (  -1.1000000   0.7000000  -0.3000000), wk =   0.0020000
        k(  431) = (  -0.1000000  -0.1000000   0.7000000), wk =   0.0020000
        k(  432) = (  -0.2000000  -0.0000000   0.6000000), wk =   0.0020000
        k(  433) = (  -0.3000000   0.1000000   0.5000000), wk =   0.0020000
        k(  434) = (  -0.4000000   0.2000000   0.4000000), wk =   0.0020000
        k(  435) = (  -0.5000000   0.3000000   0.3000000), wk =   0.0020000
        k(  436) = (  -0.6000000   0.4000000   0.2000000), wk =   0.0020000
        k(  437) = (  -0.7000000   0.5000000   0.1000000), wk =   0.0020000
        k(  438) = (  -0.8000000   0.6000000   0.0000000), wk =   0.0020000
        k(  439) = (  -0.9000000   0.7000000  -0.1000000), wk =   0.0020000
        k(  440) = (  -1.0000000   0.8000000  -0.2000000), wk =   0.0020000
        k(  441) = (   0.0000000   0.0000000   0.8000000), wk =   0.0020000
        k(  442) = (  -0.1000000   0.1000000   0.7000000), wk =   0.0020000
        k(  443) = (  -0.2000000   0.2000000   0.6000000), wk =   0.0020000
        k(  444) = (  -0.3000000   0.3000000   0.5000000), wk =   0.0020000
        k(  445) = (  -0.4000000   0.4000000   0.4000000), wk =   0.0020000
        k(  446) = (  -0.5000000   0.5000000   0.3000000), wk =   0.0020000
        k(  447) = (  -0.6000000   0.6000000   0.2000000), wk =   0.0020000
        k(  448) = (  -0.7000000   0.7000000   0.1000000), wk =   0.0020000
        k(  449) = (  -0.8000000   0.8000000   0.0000000), wk =   0.0020000
        k(  450) = (  -0.9000000   0.9000000  -0.1000000), wk =   0.0020000
        k(  451) = (   0.1000000   0.1000000   0.9000000), wk =   0.0020000
        k(  452) = (  -0.0000000   0.2000000   0.8000000), wk =   0.0020000
        k(  453) = (  -0.1000000   0.3000000   0.7000000), wk =   0.0020000
        k(  454) = (  -0.2000000   0.4000000   0.6000000), wk =   0.0020000
        k(  455) = (  -0.3000000   0.5000000   0.5000000), wk =   0.0020000
        k(  456) = (  -0.4000000   0.6000000   0.4000000), wk =   0.0020000
        k(  457) = (  -0.5000000   0.7000000   0.3000000), wk =   0.0020000
        k(  458) = (  -0.6000000   0.8000000   0.2000000), wk =   0.0020000
        k(  459) = (  -0.7000000   0.9000000   0.1000000), wk =   0.0020000
        k(  460) = (  -0.8000000   1.0000000   0.0000000), wk =   0.0020000
        k(  461) = (   0.2000000   0.2000000   1.0000000), wk =   0.0020000
        k(  462) = (   0.1000000   0.3000000   0.9000000), wk =   0.0020000
        k(  463) = (  -0.0000000   0.4000000   0.8000000), wk =   0.0020000
        k(  464) = (  -0.1000000   0.5000000   0.7000000), wk =   0.0020000
        k(  465) = (  -0.2000000   0.6000000   0.6000000), wk =   0.0020000
        k(  466) = (  -0.3000000   0.7000000   0.5000000), wk =   0.0020000
        k(  467) = (  -0.4000000   0.8000000   0.4000000), wk =   0.0020000
        k(  468) = (  -0.5000000   0.9000000   0.3000000), wk =   0.0020000
        k(  469) = (  -0.6000000   1.0000000   0.2000000), wk =   0.0020000
        k(  470) = (  -0.7000000   1.1000000   0.1000000), wk =   0.0020000
        k(  471) = (   0.3000000   0.3000000   1.1000000), wk =   0.0020000
        k(  472) = (   0.2000000   0.4000000   1.0000000), wk =   0.0020000
        k(  473) = (   0.1000000   0.5000000   0.9000000), wk =   0.0020000
        k(  474) = (  -0.0000000   0.6000000   0.8000000), wk =   0.0020000
        k(  475) = (  -0.1000000   0.7000000   0.7000000), wk =   0.0020000
        k(  476) = (  -0.2000000   0.8000000   0.6000000), wk =   0.0020000
        k(  477) = (  -0.3000000   0.9000000   0.5000000), wk =   0.0020000
        k(  478) = (  -0.4000000   1.0000000   0.4000000), wk =   0.0020000
        k(  479) = (  -0.5000000   1.1000000   0.3000000), wk =   0.0020000
        k(  480) = (  -0.6000000   1.2000000   0.2000000), wk =   0.0020000
        k(  481) = (   0.4000000   0.4000000   1.2000000), wk =   0.0020000
        k(  482) = (   0.3000000   0.5000000   1.1000000), wk =   0.0020000
        k(  483) = (   0.2000000   0.6000000   1.0000000), wk =   0.0020000
        k(  484) = (   0.1000000   0.7000000   0.9000000), wk =   0.0020000
        k(  485) = (   0.0000000   0.8000000   0.8000000), wk =   0.0020000
        k(  486) = (  -0.1000000   0.9000000   0.7000000), wk =   0.0020000
        k(  487) = (  -0.2000000   1.0000000   0.6000000), wk =   0.0020000
        k(  488) = (  -0.3000000   1.1000000   0.5000000), wk =   0.0020000
        k(  489) = (  -0.4000000   1.2000000   0.4000000), wk =   0.0020000
        k(  490) = (  -0.5000000   1.3000000   0.3000000), wk =   0.0020000
        k(  491) = (   0.5000000   0.5000000   1.3000000), wk =   0.0020000
        k(  492) = (   0.4000000   0.6000000   1.2000000), wk =   0.0020000
        k(  493) = (   0.3000000   0.7000000   1.1000000), wk =   0.0020000
        k(  494) = (   0.2000000   0.8000000   1.0000000), wk =   0.0020000
        k(  495) = (   0.1000000   0.9000000   0.9000000), wk =   0.0020000
        k(  496) = (   0.0000000   1.0000000   0.8000000), wk =   0.0020000
        k(  497) = (  -0.1000000   1.1000000   0.7000000), wk =   0.0020000
        k(  498) = (  -0.2000000   1.2000000   0.6000000), wk =   0.0020000
        k(  499) = (  -0.3000000   1.3000000   0.5000000), wk =   0.0020000
        k(  500) = (  -0.4000000   1.4000000   0.4000000), wk =   0.0020000
        k(  501) = (  -0.5000000  -0.5000000   0.5000000), wk =   0.0020000
        k(  502) = (  -0.6000000  -0.4000000   0.4000000), wk =   0.0020000
        k(  503) = (  -0.7000000  -0.3000000   0.3000000), wk =   0.0020000
        k(  504) = (  -0.8000000  -0.2000000   0.2000000), wk =   0.0020000
        k(  505) = (  -0.9000000  -0.1000000   0.1000000), wk =   0.0020000
        k(  506) = (  -1.0000000   0.0000000   0.0000000), wk =   0.0020000
        k(  507) = (  -1.1000000   0.1000000  -0.1000000), wk =   0.0020000
        k(  508) = (  -1.2000000   0.2000000  -0.2000000), wk =   0.0020000
        k(  509) = (  -1.3000000   0.3000000  -0.3000000), wk =   0.0020000
        k(  510) = (  -1.4000000   0.4000000  -0.4000000), wk =   0.0020000
        k(  511) = (  -0.4000000  -0.4000000   0.6000000), wk =   0.0020000
        k(  512) = (  -0.5000000  -0.3000000   0.5000000), wk =   0.0020000
        k(  513) = (  -0.6000000  -0.2000000   0.4000000), wk =   0.0020000
        k(  514) = (  -0.7000000  -0.1000000   0.3000000), wk =   0.0020000
        k(  515) = (  -0.8000000   0.0000000   0.2000000), wk =   0.0020000
        k(  516) = (  -0.9000000   0.1000000   0.1000000), wk =   0.0020000
        k(  517) = (  -1.0000000   0.2000000   0.0000000), wk =   0.0020000
        k(  518) = (  -1.1000000   0.3000000  -0.1000000), wk =   0.0020000
        k(  519) = (  -1.2000000   0.4000000  -0.2000000), wk =   0.0020000
        k(  520) = (  -1.3000000   0.5000000  -0.3000000), wk =   0.0020000
        k(  521) = (  -0.3000000  -0.3000000   0.7000000), wk =   0.0020000
        k(  522) = (  -0.4000000  -0.2000000   0.6000000), wk =   0.0020000
        k(  523) = (  -0.5000000  -0.1000000   0.5000000), wk =   0.0020000
        k(  524) = (  -0.6000000   0.0000000   0.4000000), wk =   0.0020000
        k(  525) = (  -0.7000000   0.1000000   0.3000000), wk =   0.0020000
        k(  526) = (  -0.8000000   0.2000000   0.2000000), wk =   0.0020000
        k(  527) = (  -0.9000000   0.3000000   0.1000000), wk =   0.0020000
        k(  528) = (  -1.0000000   0.4000000   0.0000000), wk =   0.0020000
        k(  529) = (  -1.1000000   0.5000000  -0.1000000), wk =   0.0020000
        k(  530) = (  -1.2000000   0.6000000  -0.2000000), wk =   0.0020000
        k(  531) = (  -0.2000000  -0.2000000   0.8000000), wk =   0.0020000
        k(  532) = (  -0.3000000  -0.1000000   0.7000000), wk =   0.0020000
        k(  533) = (  -0.4000000   0.0000000   0.6000000), wk =   0.0020000
        k(  534) = (  -0.5000000   0.1000000   0.5000000), wk =   0.0020000
        k(  535) = (  -0.6000000   0.2000000   0.4000000), wk =   0.0020000
        k(  536) = (  -0.7000000   0.3000000   0.3000000), wk =   0.0020000
        k(  537) = (  -0.8000000   0.4000000   0.2000000), wk =   0.0020000
        k(  538) = (  -0.9000000   0.5000000   0.1000000), wk =   0.0020000
        k(  539) = (  -1.0000000   0.6000000   0.0000000), wk =   0.0020000
        k(  540) = (  -1.1000000   0.7000000  -0.1000000), wk =   0.0020000
        k(  541) = (  -0.1000000  -0.1000000   0.9000000), wk =   0.0020000
        k(  542) = (  -0.2000000   0.0000000   0.8000000), wk =   0.0020000
        k(  543) = (  -0.3000000   0.1000000   0.7000000), wk =   0.0020000
        k(  544) = (  -0.4000000   0.2000000   0.6000000), wk =   0.0020000
        k(  545) = (  -0.5000000   0.3000000   0.5000000), wk =   0.0020000
        k(  546) = (  -0.6000000   0.4000000   0.4000000), wk =   0.0020000
        k(  547) = (  -0.7000000   0.5000000   0.3000000), wk =   0.0020000
        k(  548) = (  -0.8000000   0.6000000   0.2000000), wk =   0.0020000
        k(  549) = (  -0.9000000   0.7000000   0.1000000), wk =   0.0020000
        k(  550) = (  -1.0000000   0.8000000   0.0000000), wk =   0.0020000
        k(  551) = (   0.0000000   0.0000000   1.0000000), wk =   0.0020000
        k(  552) = (  -0.1000000   0.1000000   0.9000000), wk =   0.0020000
        k(  553) = (  -0.2000000   0.2000000   0.8000000), wk =   0.0020000
        k(  554) = (  -0.3000000   0.3000000   0.7000000), wk =   0.0020000
        k(  555) = (  -0.4000000   0.4000000   0.6000000), wk =   0.0020000
        k(  556) = (  -0.5000000   0.5000000   0.5000000), wk =   0.0020000
        k(  557) = (  -0.6000000   0.6000000   0.4000000), wk =   0.0020000
        k(  558) = (  -0.7000000   0.7000000   0.3000000), wk =   0.0020000
        k(  559) = (  -0.8000000   0.8000000   0.2000000), wk =   0.0020000
        k(  560) = (  -0.9000000   0.9000000   0.1000000), wk =   0.0020000
        k(  561) = (   0.1000000   0.1000000   1.1000000), wk =   0.0020000
        k(  562) = (  -0.0000000   0.2000000   1.0000000), wk =   0.0020000
        k(  563) = (  -0.1000000   0.3000000   0.9000000), wk =   0.0020000
        k(  564) = (  -0.2000000   0.4000000   0.8000000), wk =   0.0020000
        k(  565) = (  -0.3000000   0.5000000   0.7000000), wk =   0.0020000
        k(  566) = (  -0.4000000   0.6000000   0.6000000), wk =   0.0020000
        k(  567) = (  -0.5000000   0.7000000   0.5000000), wk =   0.0020000
        k(  568) = (  -0.6000000   0.8000000   0.4000000), wk =   0.0020000
        k(  569) = (  -0.7000000   0.9000000   0.3000000), wk =   0.0020000
        k(  570) = (  -0.8000000   1.0000000   0.2000000), wk =   0.0020000
        k(  571) = (   0.2000000   0.2000000   1.2000000), wk =   0.0020000
        k(  572) = (   0.1000000   0.3000000   1.1000000), wk =   0.0020000
        k(  573) = (  -0.0000000   0.4000000   1.0000000), wk =   0.0020000
        k(  574) = (  -0.1000000   0.5000000   0.9000000), wk =   0.0020000
        k(  575) = (  -0.2000000   0.6000000   0.8000000), wk =   0.0020000
        k(  576) = (  -0.3000000   0.7000000   0.7000000), wk =   0.0020000
        k(  577) = (  -0.4000000   0.8000000   0.6000000), wk =   0.0020000
        k(  578) = (  -0.5000000   0.9000000   0.5000000), wk =   0.0020000
        k(  579) = (  -0.6000000   1.0000000   0.4000000), wk =   0.0020000
        k(  580) = (  -0.7000000   1.1000000   0.3000000), wk =   0.0020000
        k(  581) = (   0.3000000   0.3000000   1.3000000), wk =   0.0020000
        k(  582) = (   0.2000000   0.4000000   1.2000000), wk =   0.0020000
        k(  583) = (   0.1000000   0.5000000   1.1000000), wk =   0.0020000
        k(  584) = (   0.0000000   0.6000000   1.0000000), wk =   0.0020000
        k(  585) = (  -0.1000000   0.7000000   0.9000000), wk =   0.0020000
        k(  586) = (  -0.2000000   0.8000000   0.8000000), wk =   0.0020000
        k(  587) = (  -0.3000000   0.9000000   0.7000000), wk =   0.0020000
        k(  588) = (  -0.4000000   1.0000000   0.6000000), wk =   0.0020000
        k(  589) = (  -0.5000000   1.1000000   0.5000000), wk =   0.0020000
        k(  590) = (  -0.6000000   1.2000000   0.4000000), wk =   0.0020000
        k(  591) = (   0.4000000   0.4000000   1.4000000), wk =   0.0020000
        k(  592) = (   0.3000000   0.5000000   1.3000000), wk =   0.0020000
        k(  593) = (   0.2000000   0.6000000   1.2000000), wk =   0.0020000
        k(  594) = (   0.1000000   0.7000000   1.1000000), wk =   0.0020000
        k(  595) = (   0.0000000   0.8000000   1.0000000), wk =   0.0020000
        k(  596) = (  -0.1000000   0.9000000   0.9000000), wk =   0.0020000
        k(  597) = (  -0.2000000   1.0000000   0.8000000), wk =   0.0020000
        k(  598) = (  -0.3000000   1.1000000   0.7000000), wk =   0.0020000
        k(  599) = (  -0.4000000   1.2000000   0.6000000), wk =   0.0020000
        k(  600) = (  -0.5000000   1.3000000   0.5000000), wk =   0.0020000
        k(  601) = (  -0.6000000  -0.6000000   0.6000000), wk =   0.0020000
        k(  602) = (  -0.7000000  -0.5000000   0.5000000), wk =   0.0020000
        k(  603) = (  -0.8000000  -0.4000000   0.4000000), wk =   0.0020000
        k(  604) = (  -0.9000000  -0.3000000   0.3000000), wk =   0.0020000
        k(  605) = (  -1.0000000  -0.2000000   0.2000000), wk =   0.0020000
        k(  606) = (  -1.1000000  -0.1000000   0.1000000), wk =   0.0020000
        k(  607) = (  -1.2000000   0.0000000   0.0000000), wk =   0.0020000
        k(  608) = (  -1.3000000   0.1000000  -0.1000000), wk =   0.0020000
        k(  609) = (  -1.4000000   0.2000000  -0.2000000), wk =   0.0020000
        k(  610) = (  -1.5000000   0.3000000  -0.3000000), wk =   0.0020000
        k(  611) = (  -0.5000000  -0.5000000   0.7000000), wk =   0.0020000
        k(  612) = (  -0.6000000  -0.4000000   0.6000000), wk =   0.0020000
        k(  613) = (  -0.7000000  -0.3000000   0.5000000), wk =   0.0020000
        k(  614) = (  -0.8000000  -0.2000000   0.4000000), wk =   0.0020000
        k(  615) = (  -0.9000000  -0.1000000   0.3000000), wk =   0.0020000
        k(  616) = (  -1.0000000   0.0000000   0.2000000), wk =   0.0020000
        k(  617) = (  -1.1000000   0.1000000   0.1000000), wk =   0.0020000
        k(  618) = (  -1.2000000   0.2000000   0.0000000), wk =   0.0020000
        k(  619) = (  -1.3000000   0.3000000  -0.1000000), wk =   0.0020000
        k(  620) = (  -1.4000000   0.4000000  -0.2000000), wk =   0.0020000
        k(  621) = (  -0.4000000  -0.4000000   0.8000000), wk =   0.0020000
        k(  622) = (  -0.5000000  -0.3000000   0.7000000), wk =   0.0020000
        k(  623) = (  -0.6000000  -0.2000000   0.6000000), wk =   0.0020000
        k(  624) = (  -0.7000000  -0.1000000   0.5000000), wk =   0.0020000
        k(  625) = (  -0.8000000   0.0000000   0.4000000), wk =   0.0020000
        k(  626) = (  -0.9000000   0.1000000   0.3000000), wk =   0.0020000
        k(  627) = (  -1.0000000   0.2000000   0.2000000), wk =   0.0020000
        k(  628) = (  -1.1000000   0.3000000   0.1000000), wk =   0.0020000
        k(  629) = (  -1.2000000   0.4000000   0.0000000), wk =   0.0020000
        k(  630) = (  -1.3000000   0.5000000  -0.1000000), wk =   0.0020000
        k(  631) = (  -0.3000000  -0.3000000   0.9000000), wk =   0.0020000
        k(  632) = (  -0.4000000  -0.2000000   0.8000000), wk =   0.0020000
        k(  633) = (  -0.5000000  -0.1000000   0.7000000), wk =   0.0020000
        k(  634) = (  -0.6000000   0.0000000   0.6000000), wk =   0.0020000
        k(  635) = (  -0.7000000   0.1000000   0.5000000), wk =   0.0020000
        k(  636) = (  -0.8000000   0.2000000   0.4000000), wk =   0.0020000
        k(  637) = (  -0.9000000   0.3000000   0.3000000), wk =   0.0020000
        k(  638) = (  -1.0000000   0.4000000   0.2000000), wk =   0.0020000
        k(  639) = (  -1.1000000   0.5000000   0.1000000), wk =   0.0020000
        k(  640) = (  -1.2000000   0.6000000  -0.0000000), wk =   0.0020000
        k(  641) = (  -0.2000000  -0.2000000   1.0000000), wk =   0.0020000
        k(  642) = (  -0.3000000  -0.1000000   0.9000000), wk =   0.0020000
        k(  643) = (  -0.4000000   0.0000000   0.8000000), wk =   0.0020000
        k(  644) = (  -0.5000000   0.1000000   0.7000000), wk =   0.0020000
        k(  645) = (  -0.6000000   0.2000000   0.6000000), wk =   0.0020000
        k(  646) = (  -0.7000000   0.3000000   0.5000000), wk =   0.0020000
        k(  647) = (  -0.8000000   0.4000000   0.4000000), wk =   0.0020000
        k(  648) = (  -0.9000000   0.5000000   0.3000000), wk =   0.0020000
        k(  649) = (  -1.0000000   0.6000000   0.2000000), wk =   0.0020000
        k(  650) = (  -1.1000000   0.7000000   0.1000000), wk =   0.0020000
        k(  651) = (  -0.1000000  -0.1000000   1.1000000), wk =   0.0020000
        k(  652) = (  -0.2000000   0.0000000   1.0000000), wk =   0.0020000
        k(  653) = (  -0.3000000   0.1000000   0.9000000), wk =   0.0020000
        k(  654) = (  -0.4000000   0.2000000   0.8000000), wk =   0.0020000
        k(  655) = (  -0.5000000   0.3000000   0.7000000), wk =   0.0020000
        k(  656) = (  -0.6000000   0.4000000   0.6000000), wk =   0.0020000
        k(  657) = (  -0.7000000   0.5000000   0.5000000), wk =   0.0020000
        k(  658) = (  -0.8000000   0.6000000   0.4000000), wk =   0.0020000
        k(  659) = (  -0.9000000   0.7000000   0.3000000), wk =   0.0020000
        k(  660) = (  -1.0000000   0.8000000   0.2000000), wk =   0.0020000
        k(  661) = (   0.0000000   0.0000000   1.2000000), wk =   0.0020000
        k(  662) = (  -0.1000000   0.1000000   1.1000000), wk =   0.0020000
        k(  663) = (  -0.2000000   0.2000000   1.0000000), wk =   0.0020000
        k(  664) = (  -0.3000000   0.3000000   0.9000000), wk =   0.0020000
        k(  665) = (  -0.4000000   0.4000000   0.8000000), wk =   0.0020000
        k(  666) = (  -0.5000000   0.5000000   0.7000000), wk =   0.0020000
        k(  667) = (  -0.6000000   0.6000000   0.6000000), wk =   0.0020000
        k(  668) = (  -0.7000000   0.7000000   0.5000000), wk =   0.0020000
        k(  669) = (  -0.8000000   0.8000000   0.4000000), wk =   0.0020000
        k(  670) = (  -0.9000000   0.9000000   0.3000000), wk =   0.0020000
        k(  671) = (   0.1000000   0.1000000   1.3000000), wk =   0.0020000
        k(  672) = (  -0.0000000   0.2000000   1.2000000), wk =   0.0020000
        k(  673) = (  -0.1000000   0.3000000   1.1000000), wk =   0.0020000
        k(  674) = (  -0.2000000   0.4000000   1.0000000), wk =   0.0020000
        k(  675) = (  -0.3000000   0.5000000   0.9000000), wk =   0.0020000
        k(  676) = (  -0.4000000   0.6000000   0.8000000), wk =   0.0020000
        k(  677) = (  -0.5000000   0.7000000   0.7000000), wk =   0.0020000
        k(  678) = (  -0.6000000   0.8000000   0.6000000), wk =   0.0020000
        k(  679) = (  -0.7000000   0.9000000   0.5000000), wk =   0.0020000
        k(  680) = (  -0.8000000   1.0000000   0.4000000), wk =   0.0020000
        k(  681) = (   0.2000000   0.2000000   1.4000000), wk =   0.0020000
        k(  682) = (   0.1000000   0.3000000   1.3000000), wk =   0.0020000
        k(  683) = (   0.0000000   0.4000000   1.2000000), wk =   0.0020000
        k(  684) = (  -0.1000000   0.5000000   1.1000000), wk =   0.0020000
        k(  685) = (  -0.2000000   0.6000000   1.0000000), wk =   0.0020000
        k(  686) = (  -0.3000000   0.7000000   0.9000000), wk =   0.0020000
        k(  687) = (  -0.4000000   0.8000000   0.8000000), wk =   0.0020000
        k(  688) = (  -0.5000000   0.9000000   0.7000000), wk =   0.0020000
        k(  689) = (  -0.6000000   1.0000000   0.6000000), wk =   0.0020000
        k(  690) = (  -0.7000000   1.1000000   0.5000000), wk =   0.0020000
        k(  691) = (   0.3000000   0.3000000   1.5000000), wk =   0.0020000
        k(  692) = (   0.2000000   0.4000000   1.4000000), wk =   0.0020000
        k(  693) = (   0.1000000   0.5000000   1.3000000), wk =   0.0020000
        k(  694) = (   0.0000000   0.6000000   1.2000000), wk =   0.0020000
        k(  695) = (  -0.1000000   0.7000000   1.1000000), wk =   0.0020000
        k(  696) = (  -0.2000000   0.8000000   1.0000000), wk =   0.0020000
        k(  697) = (  -0.3000000   0.9000000   0.9000000), wk =   0.0020000
        k(  698) = (  -0.4000000   1.0000000   0.8000000), wk =   0.0020000
        k(  699) = (  -0.5000000   1.1000000   0.7000000), wk =   0.0020000
        k(  700) = (  -0.6000000   1.2000000   0.6000000), wk =   0.0020000
        k(  701) = (  -0.7000000  -0.7000000   0.7000000), wk =   0.0020000
        k(  702) = (  -0.8000000  -0.6000000   0.6000000), wk =   0.0020000
        k(  703) = (  -0.9000000  -0.5000000   0.5000000), wk =   0.0020000
        k(  704) = (  -1.0000000  -0.4000000   0.4000000), wk =   0.0020000
        k(  705) = (  -1.1000000  -0.3000000   0.3000000), wk =   0.0020000
        k(  706) = (  -1.2000000  -0.2000000   0.2000000), wk =   0.0020000
        k(  707) = (  -1.3000000  -0.1000000   0.1000000), wk =   0.0020000
        k(  708) = (  -1.4000000   0.0000000   0.0000000), wk =   0.0020000
        k(  709) = (  -1.5000000   0.1000000  -0.1000000), wk =   0.0020000
        k(  710) = (  -1.6000000   0.2000000  -0.2000000), wk =   0.0020000
        k(  711) = (  -0.6000000  -0.6000000   0.8000000), wk =   0.0020000
        k(  712) = (  -0.7000000  -0.5000000   0.7000000), wk =   0.0020000
        k(  713) = (  -0.8000000  -0.4000000   0.6000000), wk =   0.0020000
        k(  714) = (  -0.9000000  -0.3000000   0.5000000), wk =   0.0020000
        k(  715) = (  -1.0000000  -0.2000000   0.4000000), wk =   0.0020000
        k(  716) = (  -1.1000000  -0.1000000   0.3000000), wk =   0.0020000
        k(  717) = (  -1.2000000   0.0000000   0.2000000), wk =   0.0020000
        k(  718) = (  -1.3000000   0.1000000   0.1000000), wk =   0.0020000
        k(  719) = (  -1.4000000   0.2000000  -0.0000000), wk =   0.0020000
        k(  720) = (  -1.5000000   0.3000000  -0.1000000), wk =   0.0020000
        k(  721) = (  -0.5000000  -0.5000000   0.9000000), wk =   0.0020000
        k(  722) = (  -0.6000000  -0.4000000   0.8000000), wk =   0.0020000
        k(  723) = (  -0.7000000  -0.3000000   0.7000000), wk =   0.0020000
        k(  724) = (  -0.8000000  -0.2000000   0.6000000), wk =   0.0020000
        k(  725) = (  -0.9000000  -0.1000000   0.5000000), wk =   0.0020000
        k(  726) = (  -1.0000000   0.0000000   0.4000000), wk =   0.0020000
        k(  727) = (  -1.1000000   0.1000000   0.3000000), wk =   0.0020000
        k(  728) = (  -1.2000000   0.2000000   0.2000000), wk =   0.0020000
        k(  729) = (  -1.3000000   0.3000000   0.1000000), wk =   0.0020000
        k(  730) = (  -1.4000000   0.4000000  -0.0000000), wk =   0.0020000
        k(  731) = (  -0.4000000  -0.4000000   1.0000000), wk =   0.0020000
        k(  732) = (  -0.5000000  -0.3000000   0.9000000), wk =   0.0020000
        k(  733) = (  -0.6000000  -0.2000000   0.8000000), wk =   0.0020000
        k(  734) = (  -0.7000000  -0.1000000   0.7000000), wk =   0.0020000
        k(  735) = (  -0.8000000   0.0000000   0.6000000), wk =   0.0020000
        k(  736) = (  -0.9000000   0.1000000   0.5000000), wk =   0.0020000
        k(  737) = (  -1.0000000   0.2000000   0.4000000), wk =   0.0020000
        k(  738) = (  -1.1000000   0.3000000   0.3000000), wk =   0.0020000
        k(  739) = (  -1.2000000   0.4000000   0.2000000), wk =   0.0020000
        k(  740) = (  -1.3000000   0.5000000   0.1000000), wk =   0.0020000
        k(  741) = (  -0.3000000  -0.3000000   1.1000000), wk =   0.0020000
        k(  742) = (  -0.4000000  -0.2000000   1.0000000), wk =   0.0020000
        k(  743) = (  -0.5000000  -0.1000000   0.9000000), wk =   0.0020000
        k(  744) = (  -0.6000000   0.0000000   0.8000000), wk =   0.0020000
        k(  745) = (  -0.7000000   0.1000000   0.7000000), wk =   0.0020000
        k(  746) = (  -0.8000000   0.2000000   0.6000000), wk =   0.0020000
        k(  747) = (  -0.9000000   0.3000000   0.5000000), wk =   0.0020000
        k(  748) = (  -1.0000000   0.4000000   0.4000000), wk =   0.0020000
        k(  749) = (  -1.1000000   0.5000000   0.3000000), wk =   0.0020000
        k(  750) = (  -1.2000000   0.6000000   0.2000000), wk =   0.0020000
        k(  751) = (  -0.2000000  -0.2000000   1.2000000), wk =   0.0020000
        k(  752) = (  -0.3000000  -0.1000000   1.1000000), wk =   0.0020000
        k(  753) = (  -0.4000000   0.0000000   1.0000000), wk =   0.0020000
        k(  754) = (  -0.5000000   0.1000000   0.9000000), wk =   0.0020000
        k(  755) = (  -0.6000000   0.2000000   0.8000000), wk =   0.0020000
        k(  756) = (  -0.7000000   0.3000000   0.7000000), wk =   0.0020000
        k(  757) = (  -0.8000000   0.4000000   0.6000000), wk =   0.0020000
        k(  758) = (  -0.9000000   0.5000000   0.5000000), wk =   0.0020000
        k(  759) = (  -1.0000000   0.6000000   0.4000000), wk =   0.0020000
        k(  760) = (  -1.1000000   0.7000000   0.3000000), wk =   0.0020000
        k(  761) = (  -0.1000000  -0.1000000   1.3000000), wk =   0.0020000
        k(  762) = (  -0.2000000   0.0000000   1.2000000), wk =   0.0020000
        k(  763) = (  -0.3000000   0.1000000   1.1000000), wk =   0.0020000
        k(  764) = (  -0.4000000   0.2000000   1.0000000), wk =   0.0020000
        k(  765) = (  -0.5000000   0.3000000   0.9000000), wk =   0.0020000
        k(  766) = (  -0.6000000   0.4000000   0.8000000), wk =   0.0020000
        k(  767) = (  -0.7000000   0.5000000   0.7000000), wk =   0.0020000
        k(  768) = (  -0.8000000   0.6000000   0.6000000), wk =   0.0020000
        k(  769) = (  -0.9000000   0.7000000   0.5000000), wk =   0.0020000
        k(  770) = (  -1.0000000   0.8000000   0.4000000), wk =   0.0020000
        k(  771) = (   0.0000000   0.0000000   1.4000000), wk =   0.0020000
        k(  772) = (  -0.1000000   0.1000000   1.3000000), wk =   0.0020000
        k(  773) = (  -0.2000000   0.2000000   1.2000000), wk =   0.0020000
        k(  774) = (  -0.3000000   0.3000000   1.1000000), wk =   0.0020000
        k(  775) = (  -0.4000000   0.4000000   1.0000000), wk =   0.0020000
        k(  776) = (  -0.5000000   0.5000000   0.9000000), wk =   0.0020000
        k(  777) = (  -0.6000000   0.6000000   0.8000000), wk =   0.0020000
        k(  778) = (  -0.7000000   0.7000000   0.7000000), wk =   0.0020000
        k(  779) = (  -0.8000000   0.8000000   0.6000000), wk =   0.0020000
        k(  780) = (  -0.9000000   0.9000000   0.5000000), wk =   0.0020000
        k(  781) = (   0.1000000   0.1000000   1.5000000), wk =   0.0020000
        k(  782) = (   0.0000000   0.2000000   1.4000000), wk =   0.0020000
        k(  783) = (  -0.1000000   0.3000000   1.3000000), wk =   0.0020000
        k(  784) = (  -0.2000000   0.4000000   1.2000000), wk =   0.0020000
        k(  785) = (  -0.3000000   0.5000000   1.1000000), wk =   0.0020000
        k(  786) = (  -0.4000000   0.6000000   1.0000000), wk =   0.0020000
        k(  787) = (  -0.5000000   0.7000000   0.9000000), wk =   0.0020000
        k(  788) = (  -0.6000000   0.8000000   0.8000000), wk =   0.0020000
        k(  789) = (  -0.7000000   0.9000000   0.7000000), wk =   0.0020000
        k(  790) = (  -0.8000000   1.0000000   0.6000000), wk =   0.0020000
        k(  791) = (   0.2000000   0.2000000   1.6000000), wk =   0.0020000
        k(  792) = (   0.1000000   0.3000000   1.5000000), wk =   0.0020000
        k(  793) = (   0.0000000   0.4000000   1.4000000), wk =   0.0020000
        k(  794) = (  -0.1000000   0.5000000   1.3000000), wk =   0.0020000
        k(  795) = (  -0.2000000   0.6000000   1.2000000), wk =   0.0020000
        k(  796) = (  -0.3000000   0.7000000   1.1000000), wk =   0.0020000
        k(  797) = (  -0.4000000   0.8000000   1.0000000), wk =   0.0020000
        k(  798) = (  -0.5000000   0.9000000   0.9000000), wk =   0.0020000
        k(  799) = (  -0.6000000   1.0000000   0.8000000), wk =   0.0020000
        k(  800) = (  -0.7000000   1.1000000   0.7000000), wk =   0.0020000
        k(  801) = (  -0.8000000  -0.8000000   0.8000000), wk =   0.0020000
        k(  802) = (  -0.9000000  -0.7000000   0.7000000), wk =   0.0020000
        k(  803) = (  -1.0000000  -0.6000000   0.6000000), wk =   0.0020000
        k(  804) = (  -1.1000000  -0.5000000   0.5000000), wk =   0.0020000
        k(  805) = (  -1.2000000  -0.4000000   0.4000000), wk =   0.0020000
        k(  806) = (  -1.3000000  -0.3000000   0.3000000), wk =   0.0020000
        k(  807) = (  -1.4000000  -0.2000000   0.2000000), wk =   0.0020000
        k(  808) = (  -1.5000000  -0.1000000   0.1000000), wk =   0.0020000
        k(  809) = (  -1.6000000   0.0000000   0.0000000), wk =   0.0020000
        k(  810) = (  -1.7000000   0.1000000  -0.1000000), wk =   0.0020000
        k(  811) = (  -0.7000000  -0.7000000   0.9000000), wk =   0.0020000
        k(  812) = (  -0.8000000  -0.6000000   0.8000000), wk =   0.0020000
        k(  813) = (  -0.9000000  -0.5000000   0.7000000), wk =   0.0020000
        k(  814) = (  -1.0000000  -0.4000000   0.6000000), wk =   0.0020000
        k(  815) = (  -1.1000000  -0.3000000   0.5000000), wk =   0.0020000
        k(  816) = (  -1.2000000  -0.2000000   0.4000000), wk =   0.0020000
        k(  817) = (  -1.3000000  -0.1000000   0.3000000), wk =   0.0020000
        k(  818) = (  -1.4000000  -0.0000000   0.2000000), wk =   0.0020000
        k(  819) = (  -1.5000000   0.1000000   0.1000000), wk =   0.0020000
        k(  820) = (  -1.6000000   0.2000000   0.0000000), wk =   0.0020000
        k(  821) = (  -0.6000000  -0.6000000   1.0000000), wk =   0.0020000
        k(  822) = (  -0.7000000  -0.5000000   0.9000000), wk =   0.0020000
        k(  823) = (  -0.8000000  -0.4000000   0.8000000), wk =   0.0020000
        k(  824) = (  -0.9000000  -0.3000000   0.7000000), wk =   0.0020000
        k(  825) = (  -1.0000000  -0.2000000   0.6000000), wk =   0.0020000
        k(  826) = (  -1.1000000  -0.1000000   0.5000000), wk =   0.0020000
        k(  827) = (  -1.2000000  -0.0000000   0.4000000), wk =   0.0020000
        k(  828) = (  -1.3000000   0.1000000   0.3000000), wk =   0.0020000
        k(  829) = (  -1.4000000   0.2000000   0.2000000), wk =   0.0020000
        k(  830) = (  -1.5000000   0.3000000   0.1000000), wk =   0.0020000
        k(  831) = (  -0.5000000  -0.5000000   1.1000000), wk =   0.0020000
        k(  832) = (  -0.6000000  -0.4000000   1.0000000), wk =   0.0020000
        k(  833) = (  -0.7000000  -0.3000000   0.9000000), wk =   0.0020000
        k(  834) = (  -0.8000000  -0.2000000   0.8000000), wk =   0.0020000
        k(  835) = (  -0.9000000  -0.1000000   0.7000000), wk =   0.0020000
        k(  836) = (  -1.0000000   0.0000000   0.6000000), wk =   0.0020000
        k(  837) = (  -1.1000000   0.1000000   0.5000000), wk =   0.0020000
        k(  838) = (  -1.2000000   0.2000000   0.4000000), wk =   0.0020000
        k(  839) = (  -1.3000000   0.3000000   0.3000000), wk =   0.0020000
        k(  840) = (  -1.4000000   0.4000000   0.2000000), wk =   0.0020000
        k(  841) = (  -0.4000000  -0.4000000   1.2000000), wk =   0.0020000
        k(  842) = (  -0.5000000  -0.3000000   1.1000000), wk =   0.0020000
        k(  843) = (  -0.6000000  -0.2000000   1.0000000), wk =   0.0020000
        k(  844) = (  -0.7000000  -0.1000000   0.9000000), wk =   0.0020000
        k(  845) = (  -0.8000000   0.0000000   0.8000000), wk =   0.0020000
        k(  846) = (  -0.9000000   0.1000000   0.7000000), wk =   0.0020000
        k(  847) = (  -1.0000000   0.2000000   0.6000000), wk =   0.0020000
        k(  848) = (  -1.1000000   0.3000000   0.5000000), wk =   0.0020000
        k(  849) = (  -1.2000000   0.4000000   0.4000000), wk =   0.0020000
        k(  850) = (  -1.3000000   0.5000000   0.3000000), wk =   0.0020000
        k(  851) = (  -0.3000000  -0.3000000   1.3000000), wk =   0.0020000
        k(  852) = (  -0.4000000  -0.2000000   1.2000000), wk =   0.0020000
        k(  853) = (  -0.5000000  -0.1000000   1.1000000), wk =   0.0020000
        k(  854) = (  -0.6000000  -0.0000000   1.0000000), wk =   0.0020000
        k(  855) = (  -0.7000000   0.1000000   0.9000000), wk =   0.0020000
        k(  856) = (  -0.8000000   0.2000000   0.8000000), wk =   0.0020000
        k(  857) = (  -0.9000000   0.3000000   0.7000000), wk =   0.0020000
        k(  858) = (  -1.0000000   0.4000000   0.6000000), wk =   0.0020000
        k(  859) = (  -1.1000000   0.5000000   0.5000000), wk =   0.0020000
        k(  860) = (  -1.2000000   0.6000000   0.4000000), wk =   0.0020000
        k(  861) = (  -0.2000000  -0.2000000   1.4000000), wk =   0.0020000
        k(  862) = (  -0.3000000  -0.1000000   1.3000000), wk =   0.0020000
        k(  863) = (  -0.4000000  -0.0000000   1.2000000), wk =   0.0020000
        k(  864) = (  -0.5000000   0.1000000   1.1000000), wk =   0.0020000
        k(  865) = (  -0.6000000   0.2000000   1.0000000), wk =   0.0020000
        k(  866) = (  -0.7000000   0.3000000   0.9000000), wk =   0.0020000
        k(  867) = (  -0.8000000   0.4000000   0.8000000), wk =   0.0020000
        k(  868) = (  -0.9000000   0.5000000   0.7000000), wk =   0.0020000
        k(  869) = (  -1.0000000   0.6000000   0.6000000), wk =   0.0020000
        k(  870) = (  -1.1000000   0.7000000   0.5000000), wk =   0.0020000
        k(  871) = (  -0.1000000  -0.1000000   1.5000000), wk =   0.0020000
        k(  872) = (  -0.2000000  -0.0000000   1.4000000), wk =   0.0020000
        k(  873) = (  -0.3000000   0.1000000   1.3000000), wk =   0.0020000
        k(  874) = (  -0.4000000   0.2000000   1.2000000), wk =   0.0020000
        k(  875) = (  -0.5000000   0.3000000   1.1000000), wk =   0.0020000
        k(  876) = (  -0.6000000   0.4000000   1.0000000), wk =   0.0020000
        k(  877) = (  -0.7000000   0.5000000   0.9000000), wk =   0.0020000
        k(  878) = (  -0.8000000   0.6000000   0.8000000), wk =   0.0020000
        k(  879) = (  -0.9000000   0.7000000   0.7000000), wk =   0.0020000
        k(  880) = (  -1.0000000   0.8000000   0.6000000), wk =   0.0020000
        k(  881) = (   0.0000000   0.0000000   1.6000000), wk =   0.0020000
        k(  882) = (  -0.1000000   0.1000000   1.5000000), wk =   0.0020000
        k(  883) = (  -0.2000000   0.2000000   1.4000000), wk =   0.0020000
        k(  884) = (  -0.3000000   0.3000000   1.3000000), wk =   0.0020000
        k(  885) = (  -0.4000000   0.4000000   1.2000000), wk =   0.0020000
        k(  886) = (  -0.5000000   0.5000000   1.1000000), wk =   0.0020000
        k(  887) = (  -0.6000000   0.6000000   1.0000000), wk =   0.0020000
        k(  888) = (  -0.7000000   0.7000000   0.9000000), wk =   0.0020000
        k(  889) = (  -0.8000000   0.8000000   0.8000000), wk =   0.0020000
        k(  890) = (  -0.9000000   0.9000000   0.7000000), wk =   0.0020000
        k(  891) = (   0.1000000   0.1000000   1.7000000), wk =   0.0020000
        k(  892) = (  -0.0000000   0.2000000   1.6000000), wk =   0.0020000
        k(  893) = (  -0.1000000   0.3000000   1.5000000), wk =   0.0020000
        k(  894) = (  -0.2000000   0.4000000   1.4000000), wk =   0.0020000
        k(  895) = (  -0.3000000   0.5000000   1.3000000), wk =   0.0020000
        k(  896) = (  -0.4000000   0.6000000   1.2000000), wk =   0.0020000
        k(  897) = (  -0.5000000   0.7000000   1.1000000), wk =   0.0020000
        k(  898) = (  -0.6000000   0.8000000   1.0000000), wk =   0.0020000
        k(  899) = (  -0.7000000   0.9000000   0.9000000), wk =   0.0020000
        k(  900) = (  -0.8000000   1.0000000   0.8000000), wk =   0.0020000
        k(  901) = (  -0.9000000  -0.9000000   0.9000000), wk =   0.0020000
        k(  902) = (  -1.0000000  -0.8000000   0.8000000), wk =   0.0020000
        k(  903) = (  -1.1000000  -0.7000000   0.7000000), wk =   0.0020000
        k(  904) = (  -1.2000000  -0.6000000   0.6000000), wk =   0.0020000
        k(  905) = (  -1.3000000  -0.5000000   0.5000000), wk =   0.0020000
        k(  906) = (  -1.4000000  -0.4000000   0.4000000), wk =   0.0020000
        k(  907) = (  -1.5000000  -0.3000000   0.3000000), wk =   0.0020000
        k(  908) = (  -1.6000000  -0.2000000   0.2000000), wk =   0.0020000
        k(  909) = (  -1.7000000  -0.1000000   0.1000000), wk =   0.0020000
        k(  910) = (  -1.8000000   0.0000000   0.0000000), wk =   0.0020000
        k(  911) = (  -0.8000000  -0.8000000   1.0000000), wk =   0.0020000
        k(  912) = (  -0.9000000  -0.7000000   0.9000000), wk =   0.0020000
        k(  913) = (  -1.0000000  -0.6000000   0.8000000), wk =   0.0020000
        k(  914) = (  -1.1000000  -0.5000000   0.7000000), wk =   0.0020000
        k(  915) = (  -1.2000000  -0.4000000   0.6000000), wk =   0.0020000
        k(  916) = (  -1.3000000  -0.3000000   0.5000000), wk =   0.0020000
        k(  917) = (  -1.4000000  -0.2000000   0.4000000), wk =   0.0020000
        k(  918) = (  -1.5000000  -0.1000000   0.3000000), wk =   0.0020000
        k(  919) = (  -1.6000000   0.0000000   0.2000000), wk =   0.0020000
        k(  920) = (  -1.7000000   0.1000000   0.1000000), wk =   0.0020000
        k(  921) = (  -0.7000000  -0.7000000   1.1000000), wk =   0.0020000
        k(  922) = (  -0.8000000  -0.6000000   1.0000000), wk =   0.0020000
        k(  923) = (  -0.9000000  -0.5000000   0.9000000), wk =   0.0020000
        k(  924) = (  -1.0000000  -0.4000000   0.8000000), wk =   0.0020000
        k(  925) = (  -1.1000000  -0.3000000   0.7000000), wk =   0.0020000
        k(  926) = (  -1.2000000  -0.2000000   0.6000000), wk =   0.0020000
        k(  927) = (  -1.3000000  -0.1000000   0.5000000), wk =   0.0020000
        k(  928) = (  -1.4000000   0.0000000   0.4000000), wk =   0.0020000
        k(  929) = (  -1.5000000   0.1000000   0.3000000), wk =   0.0020000
        k(  930) = (  -1.6000000   0.2000000   0.2000000), wk =   0.0020000
        k(  931) = (  -0.6000000  -0.6000000   1.2000000), wk =   0.0020000
        k(  932) = (  -0.7000000  -0.5000000   1.1000000), wk =   0.0020000
        k(  933) = (  -0.8000000  -0.4000000   1.0000000), wk =   0.0020000
        k(  934) = (  -0.9000000  -0.3000000   0.9000000), wk =   0.0020000
        k(  935) = (  -1.0000000  -0.2000000   0.8000000), wk =   0.0020000
        k(  936) = (  -1.1000000  -0.1000000   0.7000000), wk =   0.0020000
        k(  937) = (  -1.2000000  -0.0000000   0.6000000), wk =   0.0020000
        k(  938) = (  -1.3000000   0.1000000   0.5000000), wk =   0.0020000
        k(  939) = (  -1.4000000   0.2000000   0.4000000), wk =   0.0020000
        k(  940) = (  -1.5000000   0.3000000   0.3000000), wk =   0.0020000
        k(  941) = (  -0.5000000  -0.5000000   1.3000000), wk =   0.0020000
        k(  942) = (  -0.6000000  -0.4000000   1.2000000), wk =   0.0020000
        k(  943) = (  -0.7000000  -0.3000000   1.1000000), wk =   0.0020000
        k(  944) = (  -0.8000000  -0.2000000   1.0000000), wk =   0.0020000
        k(  945) = (  -0.9000000  -0.1000000   0.9000000), wk =   0.0020000
        k(  946) = (  -1.0000000   0.0000000   0.8000000), wk =   0.0020000
        k(  947) = (  -1.1000000   0.1000000   0.7000000), wk =   0.0020000
        k(  948) = (  -1.2000000   0.2000000   0.6000000), wk =   0.0020000
        k(  949) = (  -1.3000000   0.3000000   0.5000000), wk =   0.0020000
        k(  950) = (  -1.4000000   0.4000000   0.4000000), wk =   0.0020000
        k(  951) = (  -0.4000000  -0.4000000   1.4000000), wk =   0.0020000
        k(  952) = (  -0.5000000  -0.3000000   1.3000000), wk =   0.0020000
        k(  953) = (  -0.6000000  -0.2000000   1.2000000), wk =   0.0020000
        k(  954) = (  -0.7000000  -0.1000000   1.1000000), wk =   0.0020000
        k(  955) = (  -0.8000000   0.0000000   1.0000000), wk =   0.0020000
        k(  956) = (  -0.9000000   0.1000000   0.9000000), wk =   0.0020000
        k(  957) = (  -1.0000000   0.2000000   0.8000000), wk =   0.0020000
        k(  958) = (  -1.1000000   0.3000000   0.7000000), wk =   0.0020000
        k(  959) = (  -1.2000000   0.4000000   0.6000000), wk =   0.0020000
        k(  960) = (  -1.3000000   0.5000000   0.5000000), wk =   0.0020000
        k(  961) = (  -0.3000000  -0.3000000   1.5000000), wk =   0.0020000
        k(  962) = (  -0.4000000  -0.2000000   1.4000000), wk =   0.0020000
        k(  963) = (  -0.5000000  -0.1000000   1.3000000), wk =   0.0020000
        k(  964) = (  -0.6000000  -0.0000000   1.2000000), wk =   0.0020000
        k(  965) = (  -0.7000000   0.1000000   1.1000000), wk =   0.0020000
        k(  966) = (  -0.8000000   0.2000000   1.0000000), wk =   0.0020000
        k(  967) = (  -0.9000000   0.3000000   0.9000000), wk =   0.0020000
        k(  968) = (  -1.0000000   0.4000000   0.8000000), wk =   0.0020000
        k(  969) = (  -1.1000000   0.5000000   0.7000000), wk =   0.0020000
        k(  970) = (  -1.2000000   0.6000000   0.6000000), wk =   0.0020000
        k(  971) = (  -0.2000000  -0.2000000   1.6000000), wk =   0.0020000
        k(  972) = (  -0.3000000  -0.1000000   1.5000000), wk =   0.0020000
        k(  973) = (  -0.4000000  -0.0000000   1.4000000), wk =   0.0020000
        k(  974) = (  -0.5000000   0.1000000   1.3000000), wk =   0.0020000
        k(  975) = (  -0.6000000   0.2000000   1.2000000), wk =   0.0020000
        k(  976) = (  -0.7000000   0.3000000   1.1000000), wk =   0.0020000
        k(  977) = (  -0.8000000   0.4000000   1.0000000), wk =   0.0020000
        k(  978) = (  -0.9000000   0.5000000   0.9000000), wk =   0.0020000
[...]


     ismear =     1 iq =    4079 coord.:   0.93750  0.87500  0.87500 wt:   0.00024 Temp:    0.075K
     -------------------------------------------------------------------
     lambda___(   1 )=       0.093212   gamma___=       0.000707 meV   omega=      3.3355 meV
     lambda_tr(   1 )=       0.022371   gamma_tr=       0.000170 meV   omega=      3.3355 meV
     lambda___(   2 )=       0.001989   gamma___=       0.000018 meV   omega=      3.6363 meV
     lambda_tr(   2 )=       0.001059   gamma_tr=       0.000010 meV   omega=      3.6363 meV
     lambda___(   3 )=       0.037721   gamma___=       0.000660 meV   omega=      5.0642 meV
     lambda_tr(   3 )=       0.007332   gamma_tr=       0.000128 meV   omega=      5.0642 meV
     lambda___( tot )=       0.132923
     lambda_tr( tot )=       0.030763
     -------------------------------------------------------------------


     Number of (k,k+q) pairs on the Fermi surface:     4068 out of     4096


     ismear =     1 iq =    4080 coord.:   0.93750  0.87500  0.93750 wt:   0.00024 Temp:    0.075K
     -------------------------------------------------------------------
     lambda___(   1 )=      -0.015055   gamma___=      -0.000071 meV   omega=      2.6227 meV
     lambda_tr(   1 )=      -0.099493   gamma_tr=      -0.000467 meV   omega=      2.6227 meV
     lambda___(   2 )=       0.078485   gamma___=       0.000658 meV   omega=      3.5046 meV
     lambda_tr(   2 )=      -0.027320   gamma_tr=      -0.000229 meV   omega=      3.5046 meV
     lambda___(   3 )=       0.086173   gamma___=       0.001241 meV   omega=      4.5941 meV
     lambda_tr(   3 )=      -0.088205   gamma_tr=      -0.001270 meV   omega=      4.5941 meV
     lambda___( tot )=       0.149603
     lambda_tr( tot )=      -0.215018
     -------------------------------------------------------------------


     Number of (k,k+q) pairs on the Fermi surface:     4070 out of     4096


     ismear =     1 iq =    4081 coord.:   0.93750  0.93750  0.00000 wt:   0.00024 Temp:    0.075K
     -------------------------------------------------------------------
     lambda___(   1 )=       0.000000   gamma___=       0.000000 meV   omega=      2.5233 meV
     lambda_tr(   1 )=       0.000000   gamma_tr=       0.000000 meV   omega=      2.5233 meV
     lambda___(   2 )=       0.000000   gamma___=       0.000000 meV   omega=      2.5233 meV
     lambda_tr(   2 )=       0.000000   gamma_tr=       0.000000 meV   omega=      2.5233 meV
     lambda___(   3 )=       0.000000   gamma___=       0.000000 meV   omega=      2.9381 meV
     lambda_tr(   3 )=      -0.000000   gamma_tr=      -0.000000 meV   omega=      2.9381 meV
     lambda___( tot )=       0.000000
     lambda_tr( tot )=       0.000000
     -------------------------------------------------------------------


     Number of (k,k+q) pairs on the Fermi surface:     4072 out of     4096


     ismear =     1 iq =    4082 coord.:   0.93750  0.93750  0.06250 wt:   0.00024 Temp:    0.075K
     -------------------------------------------------------------------
     lambda___(   1 )=       0.093212   gamma___=       0.000707 meV   omega=      3.3355 meV
     lambda_tr(   1 )=       0.022371   gamma_tr=       0.000170 meV   omega=      3.3355 meV
     lambda___(   2 )=       0.001989   gamma___=       0.000018 meV   omega=      3.6363 meV
     lambda_tr(   2 )=       0.001059   gamma_tr=       0.000010 meV   omega=      3.6363 meV
     lambda___(   3 )=       0.037721   gamma___=       0.000660 meV   omega=      5.0642 meV
     lambda_tr(   3 )=       0.007332   gamma_tr=       0.000128 meV   omega=      5.0642 meV
     lambda___( tot )=       0.132922
     lambda_tr( tot )=       0.030763
     -------------------------------------------------------------------


     Number of (k,k+q) pairs on the Fermi surface:     4068 out of     4096


     ismear =     1 iq =    4083 coord.:   0.93750  0.93750  0.12500 wt:   0.00024 Temp:    0.075K
     -------------------------------------------------------------------
     lambda___(   1 )=       0.033869   gamma___=       0.000409 meV   omega=      4.2088 meV
     lambda_tr(   1 )=       0.030370   gamma_tr=       0.000367 meV   omega=      4.2088 meV
     lambda___(   2 )=       0.152551   gamma___=       0.002066 meV   omega=      4.4559 meV
     lambda_tr(   2 )=       0.088951   gamma_tr=       0.001205 meV   omega=      4.4559 meV
     lambda___(   3 )=       0.156063   gamma___=       0.005043 meV   omega=      6.8830 meV
     lambda_tr(   3 )=       0.006797   gamma_tr=       0.000220 meV   omega=      6.8830 meV
     lambda___( tot )=       0.342482
     lambda_tr( tot )=       0.126117
     -------------------------------------------------------------------


     Number of (k,k+q) pairs on the Fermi surface:     4066 out of     4096


     ismear =     1 iq =    4084 coord.:   0.93750  0.93750  0.18750 wt:   0.00024 Temp:    0.075K
     -------------------------------------------------------------------
     lambda___(   1 )=       0.007068   gamma___=       0.000111 meV   omega=      4.7986 meV
     lambda_tr(   1 )=       0.009184   gamma_tr=       0.000144 meV   omega=      4.7986 meV
     lambda___(   2 )=       0.058518   gamma___=       0.000929 meV   omega=      4.8246 meV
     lambda_tr(   2 )=       0.085373   gamma_tr=       0.001355 meV   omega=      4.8246 meV
     lambda___(   3 )=       0.010071   gamma___=       0.000440 meV   omega=      8.0013 meV
     lambda_tr(   3 )=       0.013480   gamma_tr=       0.000589 meV   omega=      8.0013 meV
     lambda___( tot )=       0.075657
     lambda_tr( tot )=       0.108037
     -------------------------------------------------------------------


     Number of (k,k+q) pairs on the Fermi surface:     4066 out of     4096


     ismear =     1 iq =    4085 coord.:   0.93750  0.93750  0.25000 wt:   0.00024 Temp:    0.075K
     -------------------------------------------------------------------
     lambda___(   1 )=       0.003547   gamma___=       0.000058 meV   omega=      4.9125 meV
     lambda_tr(   1 )=       0.001495   gamma_tr=       0.000025 meV   omega=      4.9125 meV
     lambda___(   2 )=       0.002262   gamma___=       0.000040 meV   omega=      5.0995 meV
     lambda_tr(   2 )=       0.000781   gamma_tr=       0.000014 meV   omega=      5.0995 meV
     lambda___(   3 )=       0.010464   gamma___=       0.000532 meV   omega=      8.6362 meV
     lambda_tr(   3 )=       0.007200   gamma_tr=       0.000366 meV   omega=      8.6362 meV
     lambda___( tot )=       0.016273
     lambda_tr( tot )=       0.009476
     -------------------------------------------------------------------


     Number of (k,k+q) pairs on the Fermi surface:     4066 out of     4096


     ismear =     1 iq =    4086 coord.:   0.93750  0.93750  0.31250 wt:   0.00024 Temp:    0.075K
     -------------------------------------------------------------------
     lambda___(   1 )=       0.074874   gamma___=       0.001274 meV   omega=      4.9939 meV
     lambda_tr(   1 )=       0.043995   gamma_tr=       0.000748 meV   omega=      4.9939 meV
     lambda___(   2 )=       0.003222   gamma___=       0.000061 meV   omega=      5.2899 meV
     lambda_tr(   2 )=       0.001882   gamma_tr=       0.000036 meV   omega=      5.2899 meV
     lambda___(   3 )=       0.120283   gamma___=       0.006847 meV   omega=      9.1353 meV
     lambda_tr(   3 )=       0.068628   gamma_tr=       0.003907 meV   omega=      9.1353 meV
     lambda___( tot )=       0.198378
     lambda_tr( tot )=       0.114504
     -------------------------------------------------------------------


     Number of (k,k+q) pairs on the Fermi surface:     4066 out of     4096


     ismear =     1 iq =    4087 coord.:   0.93750  0.93750  0.37500 wt:   0.00024 Temp:    0.075K
     -------------------------------------------------------------------
     lambda___(   1 )=       0.415065   gamma___=       0.007580 meV   omega=      5.1743 meV
     lambda_tr(   1 )=      -0.369146   gamma_tr=      -0.006741 meV   omega=      5.1743 meV
     lambda___(   2 )=       0.018633   gamma___=       0.000381 meV   omega=      5.4737 meV
     lambda_tr(   2 )=      -0.041441   gamma_tr=      -0.000847 meV   omega=      5.4737 meV
     lambda___(   3 )=       0.141589   gamma___=       0.008941 meV   omega=      9.6219 meV
     lambda_tr(   3 )=      -0.060874   gamma_tr=      -0.003844 meV   omega=      9.6219 meV
     lambda___( tot )=       0.575287
     lambda_tr( tot )=      -0.471461
     -------------------------------------------------------------------


     Number of (k,k+q) pairs on the Fermi surface:     4066 out of     4096


     ismear =     1 iq =    4088 coord.:   0.93750  0.93750  0.43750 wt:   0.00024 Temp:    0.075K
     -------------------------------------------------------------------
     lambda___(   1 )=       0.003135   gamma___=       0.000061 meV   omega=      5.3237 meV
     lambda_tr(   1 )=      -0.003445   gamma_tr=      -0.000067 meV   omega=      5.3237 meV
     lambda___(   2 )=       0.117344   gamma___=       0.002495 meV   omega=      5.5835 meV
     lambda_tr(   2 )=       0.007937   gamma_tr=       0.000169 meV   omega=      5.5835 meV
     lambda___(   3 )=       0.124267   gamma___=       0.008349 meV   omega=      9.9249 meV
     lambda_tr(   3 )=       0.029488   gamma_tr=       0.001981 meV   omega=      9.9249 meV
     lambda___( tot )=       0.244745
     lambda_tr( tot )=       0.033980
     -------------------------------------------------------------------


     Number of (k,k+q) pairs on the Fermi surface:     4066 out of     4096


     ismear =     1 iq =    4089 coord.:   0.93750  0.93750  0.50000 wt:   0.00024 Temp:    0.075K
     -------------------------------------------------------------------
     lambda___(   1 )=      -0.000002   gamma___=      -0.000000 meV   omega=      5.3007 meV
     lambda_tr(   1 )=      -0.000002   gamma_tr=      -0.000000 meV   omega=      5.3007 meV
     lambda___(   2 )=       0.000236   gamma___=       0.000005 meV   omega=      5.5241 meV
     lambda_tr(   2 )=      -0.000019   gamma_tr=      -0.000000 meV   omega=      5.5241 meV
     lambda___(   3 )=       0.002982   gamma___=       0.000198 meV   omega=      9.8580 meV
     lambda_tr(   3 )=       0.000608   gamma_tr=       0.000040 meV   omega=      9.8580 meV
     lambda___( tot )=       0.003216
     lambda_tr( tot )=       0.000586
     -------------------------------------------------------------------


     Number of (k,k+q) pairs on the Fermi surface:     4066 out of     4096


     ismear =     1 iq =    4090 coord.:   0.93750  0.93750  0.56250 wt:   0.00024 Temp:    0.075K
     -------------------------------------------------------------------
     lambda___(   1 )=       0.000000   gamma___=       0.000000 meV   omega=      5.1301 meV
     lambda_tr(   1 )=       0.000000   gamma_tr=       0.000000 meV   omega=      5.1301 meV
     lambda___(   2 )=       0.000000   gamma___=       0.000000 meV   omega=      5.3439 meV
     lambda_tr(   2 )=       0.000000   gamma_tr=       0.000000 meV   omega=      5.3439 meV
     lambda___(   3 )=       0.000000   gamma___=       0.000000 meV   omega=      9.4640 meV
     lambda_tr(   3 )=       0.000000   gamma_tr=       0.000000 meV   omega=      9.4640 meV
     lambda___( tot )=       0.000000
     lambda_tr( tot )=       0.000000
     -------------------------------------------------------------------


     Number of (k,k+q) pairs on the Fermi surface:     4066 out of     4096


     ismear =     1 iq =    4091 coord.:   0.93750  0.93750  0.62500 wt:   0.00024 Temp:    0.075K
     -------------------------------------------------------------------
     lambda___(   1 )=       0.000000   gamma___=       0.000000 meV   omega=      4.9421 meV
     lambda_tr(   1 )=       0.000000   gamma_tr=       0.000000 meV   omega=      4.9421 meV
     lambda___(   2 )=       0.000000   gamma___=       0.000000 meV   omega=      5.2107 meV
     lambda_tr(   2 )=      -0.000000   gamma_tr=      -0.000000 meV   omega=      5.2107 meV
     lambda___(   3 )=       0.000000   gamma___=       0.000000 meV   omega=      8.9631 meV
     lambda_tr(   3 )=      -0.000000   gamma_tr=      -0.000000 meV   omega=      8.9631 meV
     lambda___( tot )=       0.000000
     lambda_tr( tot )=       0.000000
     -------------------------------------------------------------------


     Number of (k,k+q) pairs on the Fermi surface:     4066 out of     4096


     ismear =     1 iq =    4092 coord.:   0.93750  0.93750  0.68750 wt:   0.00024 Temp:    0.075K
     -------------------------------------------------------------------
     lambda___(   1 )=       0.002471   gamma___=       0.000038 meV   omega=      4.7572 meV
     lambda_tr(   1 )=       0.001557   gamma_tr=       0.000024 meV   omega=      4.7572 meV
     lambda___(   2 )=       0.030569   gamma___=       0.000560 meV   omega=      5.1832 meV
     lambda_tr(   2 )=       0.074674   gamma_tr=       0.001368 meV   omega=      5.1832 meV
     lambda___(   3 )=       0.214796   gamma___=       0.010472 meV   omega=      8.4542 meV
     lambda_tr(   3 )=       0.323316   gamma_tr=       0.015762 meV   omega=      8.4542 meV
     lambda___( tot )=       0.247836
     lambda_tr( tot )=       0.399547
     -------------------------------------------------------------------


     Number of (k,k+q) pairs on the Fermi surface:     4066 out of     4096


     ismear =     1 iq =    4093 coord.:   0.93750  0.93750  0.75000 wt:   0.00024 Temp:    0.075K
     -------------------------------------------------------------------
     lambda___(   1 )=       0.002883   gamma___=       0.000038 meV   omega=      4.3972 meV
     lambda_tr(   1 )=      -0.001687   gamma_tr=      -0.000022 meV   omega=      4.3972 meV
     lambda___(   2 )=       0.001103   gamma___=       0.000019 meV   omega=      5.0657 meV
     lambda_tr(   2 )=       0.000237   gamma_tr=       0.000004 meV   omega=      5.0657 meV
     lambda___(   3 )=       0.001427   gamma___=       0.000058 meV   omega=      7.7178 meV
     lambda_tr(   3 )=       0.000433   gamma_tr=       0.000018 meV   omega=      7.7178 meV
     lambda___( tot )=       0.005414
     lambda_tr( tot )=      -0.001017
     -------------------------------------------------------------------


     Number of (k,k+q) pairs on the Fermi surface:     4066 out of     4096


     ismear =     1 iq =    4094 coord.:   0.93750  0.93750  0.81250 wt:   0.00024 Temp:    0.075K
     -------------------------------------------------------------------
     lambda___(   1 )=       0.062588   gamma___=       0.000574 meV   omega=      3.6677 meV
     lambda_tr(   1 )=       0.079609   gamma_tr=       0.000730 meV   omega=      3.6677 meV
     lambda___(   2 )=       0.011510   gamma___=       0.000164 meV   omega=      4.5712 meV
     lambda_tr(   2 )=       0.015075   gamma_tr=       0.000215 meV   omega=      4.5712 meV
     lambda___(   3 )=       0.016195   gamma___=       0.000456 meV   omega=      6.4252 meV
     lambda_tr(   3 )=       0.021423   gamma_tr=       0.000603 meV   omega=      6.4252 meV
     lambda___( tot )=       0.090293
     lambda_tr( tot )=       0.116107
     -------------------------------------------------------------------


     Number of (k,k+q) pairs on the Fermi surface:     4066 out of     4096


     ismear =     1 iq =    4095 coord.:   0.93750  0.93750  0.87500 wt:   0.00024 Temp:    0.075K
     -------------------------------------------------------------------
     lambda___(   1 )=      -0.015055   gamma___=      -0.000071 meV   omega=      2.6227 meV
     lambda_tr(   1 )=      -0.099493   gamma_tr=      -0.000467 meV   omega=      2.6227 meV
     lambda___(   2 )=       0.078485   gamma___=       0.000658 meV   omega=      3.5046 meV
     lambda_tr(   2 )=      -0.027320   gamma_tr=      -0.000229 meV   omega=      3.5046 meV
     lambda___(   3 )=       0.086173   gamma___=       0.001241 meV   omega=      4.5941 meV
     lambda_tr(   3 )=      -0.088205   gamma_tr=      -0.001270 meV   omega=      4.5941 meV
     lambda___( tot )=       0.149602
     lambda_tr( tot )=      -0.215018
     -------------------------------------------------------------------


     Number of (k,k+q) pairs on the Fermi surface:     4070 out of     4096


     ismear =     1 iq =    4096 coord.:   0.93750  0.93750  0.93750 wt:   0.00024 Temp:    0.075K
     -------------------------------------------------------------------
     lambda___(   1 )=       0.158231   gamma___=       0.000398 meV   omega=      1.9193 meV
     lambda_tr(   1 )=      -0.114113   gamma_tr=      -0.000287 meV   omega=      1.9193 meV
     lambda___(   2 )=       0.158231   gamma___=       0.000398 meV   omega=      1.9193 meV
     lambda_tr(   2 )=      -0.114113   gamma_tr=      -0.000287 meV   omega=      1.9193 meV
     lambda___(   3 )=       0.101849   gamma___=       0.000678 meV   omega=      3.1243 meV
     lambda_tr(   3 )=      -0.161519   gamma_tr=      -0.001075 meV   omega=      3.1243 meV
     lambda___( tot )=       0.418312
     lambda_tr( tot )=      -0.389744
     -------------------------------------------------------------------


     Number of (k,k+q) pairs on the Fermi surface:     4074 out of     4096

     ===================================================================
     Memory usage:  VmHWM =       239Mb
                   VmPeak =      3968Mb
     ===================================================================


     ===================================================================
     Eliashberg Spectral Function in the Migdal Approximation
     ===================================================================

     lambda :    0.3785102
     lambda_tr :    0.4244119
 
     Estimated Allen-Dynes Tc
 
     logavg =    0.0004713 l_a2f =    0.3785243
     mu =   0.10 Tc =         0.224531958110 K
     mu =   0.12 Tc =         0.122912830068 K
     mu =   0.14 Tc =         0.058220844895 K
     mu =   0.16 Tc =         0.022490529699 K
     mu =   0.18 Tc =         0.006432518568 K
     mu =   0.20 Tc =         0.001150088318 K
     a2F          :      1.19s CPU      1.32s WALL (       1 calls)

     Unfolding on the coarse grid
     elphon_wrap  :    378.88s CPU    441.85s WALL (       1 calls)

     INITIALIZATION: 

     init_vloc    :      0.00s CPU      0.00s WALL (       1 calls)
     init_us_1    :      0.05s CPU      0.05s WALL (       2 calls)



     Electron-Phonon interpolation
     ephwann      :    692.01s CPU    722.30s WALL (       1 calls)
     ep-interp    :    684.75s CPU    711.33s WALL (    4096 calls)
     PH SELF-ENER :      1.92s CPU      1.92s WALL (    4096 calls)

     Ham: step 1  :      0.00s CPU      0.00s WALL (       1 calls)
     Ham: step 2  :      0.02s CPU      0.06s WALL (       1 calls)
     ep: step 1   :      0.03s CPU      0.03s WALL (     375 calls)
     ep: step 2   :    691.29s CPU    721.45s WALL (       1 calls)
     DynW2B       :      0.09s CPU      0.09s WALL (    4096 calls)
     HamW2B       :     58.74s CPU     59.97s WALL ( 3359950 calls)
     ephW2Bp      :      7.49s CPU     21.73s WALL (    4096 calls)
     ephW2B       :     70.10s CPU     71.67s WALL ( 1628319 calls)
     vmewan2bloch :    414.48s CPU    422.33s WALL ( 3358720 calls)
     vmewan2bloch :    414.48s CPU    422.33s WALL ( 3358720 calls)


     Total program execution
     EPW          :  18m14.32s CPU  19m54.52s WALL

     ===============================================================================
     The functionality-dependent EPW.bib file was created with suggested citations. 
     Please consider citing the papers listed in EPW.bib.                           
     ===============================================================================
                                                                                    
